ITEM: TIMESTEP
0
ITEM: NUMBER OF ATOMS
100
ITEM: BOX BOUNDS pp pp pp
0.0000000000000000e+00 1.0000000000000000e+02
0.0000000000000000e+00 1.0000000000000000e+00
0.0000000000000000e+00 1.0000000000000000e+00
ITEM: ATOMS id x vx v_vis_r
1 0 5 0.4
2 1 5 0.4
3 2 5 0.4
4 3 5 0.4
5 4 0 0.4
6 5 0 0.4
7 6 0 0.4
8 7 0 0.4
9 8 0 0.4
10 9 0 0.4
11 10 0 0.4
12 11 0 0.4
13 12 0 0.4
14 13 0 0.4
15 14 0 0.4
16 15 0 0.4
17 16 0 0.4
18 17 0 0.4
19 18 0 0.4
20 19 0 0.4
21 20 0 0.4
22 21 0 0.4
23 22 0 0.4
24 23 0 0.4
25 24 0 0.4
26 25 0 0.4
27 26 0 0.4
28 27 0 0.4
29 28 0 0.4
30 29 0 0.4
31 30 0 0.4
32 31 0 0.4
33 32 0 0.4
34 33 0 0.4
35 34 0 0.4
36 35 0 0.4
37 36 0 0.4
38 37 0 0.4
39 38 0 0.4
40 39 0 0.4
41 40 0 0.4
42 41 0 0.4
43 42 0 0.4
44 43 0 0.4
45 44 0 0.4
46 45 0 0.4
47 46 0 0.4
48 47 0 0.4
49 48 0 0.4
50 49 0 0.4
51 50 0 0.4
52 51 0 0.4
53 52 0 0.4
54 53 0 0.4
55 54 0 0.4
56 55 0 0.4
57 56 0 0.4
58 57 0 0.4
59 58 0 0.4
60 59 0 0.4
61 60 0 0.4
62 61 0 0.4
63 62 0 0.4
64 63 0 0.4
65 64 0 0.4
66 65 0 0.4
67 66 0 0.4
68 67 0 0.4
69 68 0 0.4
70 69 0 0.4
71 70 0 0.4
72 71 0 0.4
73 72 0 0.4
74 73 0 0.4
75 74 0 0.4
76 75 0 0.4
77 76 0 0.4
78 77 0 0.4
79 78 0 0.4
80 79 0 0.4
81 80 0 0.4
82 81 0 0.4
83 82 0 0.4
84 83 0 0.4
85 84 0 0.4
86 85 0 0.4
87 86 0 0.4
88 87 0 0.4
89 88 0 0.4
90 89 0 0.4
91 90 0 0.4
92 91 0 0.4
93 92 0 0.4
94 93 0 0.4
95 94 0 0.4
96 95 0 0.4
97 96 0 0.4
98 97 0 0.4
99 98 0 0.4
100 99 0 0.4
ITEM: TIMESTEP
10
ITEM: NUMBER OF ATOMS
100
ITEM: BOX BOUNDS pp pp pp
0.0000000000000000e+00 1.0000000000000000e+02
0.0000000000000000e+00 1.0000000000000000e+00
0.0000000000000000e+00 1.0000000000000000e+00
ITEM: ATOMS id x vx v_vis_r
1 0.23041 4.12462 0.4
2 1.24862 4.8705 0.4
3 2.24429 4.2978 0.4
4 3.16716 1.00327 0.4
5 4.08284 3.99642 0.4
6 5.00567 0.697047 0.4
7 6.00011 0.0192675 0.4
8 7 0.00029592 0.4
9 8 2.83198e-06 0.4
10 9 1.71877e-08 0.4
11 10 6.60287e-11 0.4
12 11 1.53904e-13 0.4
13 12 0 0.4
14 13 0 0.4
15 14 0 0.4
16 15 0 0.4
17 16 0 0.4
18 17 0 0.4
19 18 0 0.4
20 19 0 0.4
21 20 0 0.4
22 21 0 0.4
23 22 0 0.4
24 23 0 0.4
25 24 0 0.4
26 25 0 0.4
27 26 0 0.4
28 27 0 0.4
29 28 0 0.4
30 29 0 0.4
31 30 0 0.4
32 31 0 0.4
33 32 0 0.4
34 33 0 0.4
35 34 0 0.4
36 35 0 0.4
37 36 0 0.4
38 37 0 0.4
39 38 0 0.4
40 39 0 0.4
41 40 0 0.4
42 41 0 0.4
43 42 0 0.4
44 43 0 0.4
45 44 0 0.4
46 45 0 0.4
47 46 0 0.4
48 47 0 0.4
49 48 0 0.4
50 49 0 0.4
51 50 0 0.4
52 51 0 0.4
53 52 0 0.4
54 53 0 0.4
55 54 0 0.4
56 55 0 0.4
57 56 0 0.4
58 57 0 0.4
59 58 0 0.4
60 59 0 0.4
61 60 0 0.4
62 61 0 0.4
63 62 0 0.4
64 63 0 0.4
65 64 0 0.4
66 65 0 0.4
67 66 0 0.4
68 67 0 0.4
69 68 0 0.4
70 69 0 0.4
71 70 0 0.4
72 71 0 0.4
73 72 0 0.4
74 73 0 0.4
75 74 0 0.4
76 75 0 0.4
77 76 0 0.4
78 77 0 0.4
79 78 0 0.4
80 79 0 0.4
81 80 0 0.4
82 81 0 0.4
83 82 0 0.4
84 83 0 0.4
85 84 0 0.4
86 85 0 0.4
87 86 0 0.4
88 87 0 0.4
89 88 0 0.4
90 89 0 0.4
91 90 0 0.4
92 91 0 0.4
93 92 1.13403e-13 0.4
94 93 3.70665e-11 0.4
95 94 8.79087e-09 0.4
96 95 1.27001e-06 0.4
97 96 0.0001088 0.4
98 97 0.00509729 0.4
99 98.0013 0.110423 0.4
100 99.0196 0.875147 0.4
ITEM: TIMESTEP
20
ITEM: NUMBER OF ATOMS
100
ITEM: BOX BOUNDS pp pp pp
0.0000000000000000e+00 1.0000000000000000e+02
0.0000000000000000e+00 1.0000000000000000e+00
0.0000000000000000e+00 1.0000000000000000e+00
ITEM: ATOMS id x vx v_vis_r
1 0.419876 3.49633 0.4
2 1.44989 1.99138 0.4
3 2.34556 1.60918 0.4
4 3.30014 3.21146 0.4
5 4.19886 1.71549 0.4
6 5.14905 2.95957 0.4
7 6.03448 2.63049 0.4
8 7.00165 0.188869 0.4
9 8.00005 0.00629044 0.4
10 9 0.000160924 0.4
11 10 3.17455e-06 0.4
12 11 4.81914e-08 0.4
13 12 5.6609e-10 0.4
14 13 5.15577e-12 0.4
15 14 3.64508e-14 0.4
16 15 0 0.4
17 16 0 0.4
18 17 0 0.4
19 18 0 0.4
20 19 0 0.4
21 20 0 0.4
22 21 0 0.4
23 22 0 0.4
24 23 0 0.4
25 24 0 0.4
26 25 0 0.4
27 26 0 0.4
28 27 0 0.4
29 28 0 0.4
30 29 0 0.4
31 30 0 0.4
32 31 0 0.4
33 32 0 0.4
34 33 0 0.4
35 34 0 0.4
36 35 0 0.4
37 36 0 0.4
38 37 0 0.4
39 38 0 0.4
40 39 0 0.4
41 40 0 0.4
42 41 0 0.4
43 42 0 0.4
44 43 0 0.4
45 44 0 0.4
46 45 0 0.4
47 46 0 0.4
48 47 0 0.4
49 48 0 0.4
50 49 0 0.4
51 50 0 0.4
52 51 0 0.4
53 52 0 0.4
54 53 0 0.4
55 54 0 0.4
56 55 0 0.4
57 56 0 0.4
58 57 0 0.4
59 58 0 0.4
60 59 0 0.4
61 60 0 0.4
62 61 0 0.4
63 62 0 0.4
64 63 0 0.4
65 64 0 0.4
66 65 0 0.4
67 66 0 0.4
68 67 0 0.4
69 68 0 0.4
70 69 0 0.4
71 70 0 0.4
72 71 0 0.4
73 72 0 0.4
74 73 0 0.4
75 74 0 0.4
76 75 0 0.4
77 76 0 0.4
78 77 0 0.4
79 78 0 0.4
80 79 0 0.4
81 80 0 0.4
82 81 0 0.4
83 82 0 0.4
84 83 0 0.4
85 84 0 0.4
86 85 0 0.4
87 86 0 0.4
88 87 0 0.4
89 88 0 0.4
90 89 0 0.4
91 90 2.34905e-12 0.4
92 91 2.18916e-10 0.4
93 92 1.62854e-08 0.4
94 93 8.92615e-07 0.4
95 94 3.4852e-05 0.4
96 95 0.000919219 0.4
97 96.0002 0.0150663 0.4
98 97.0025 0.135975 0.4
99 98.0184 0.612734 0.4
100 99.0793 1.42605 0.4
ITEM: TIMESTEP
30
ITEM: NUMBER OF ATOMS
100
ITEM: BOX BOUNDS pp pp pp
0.0000000000000000e+00 1.0000000000000000e+02
0.0000000000000000e+00 1.0000000000000000e+00
0.0000000000000000e+00 1.0000000000000000e+00
ITEM: ATOMS id x vx v_vis_r
1 0.55069 0.821747 0.4
2 1.46696 0.910823 0.4
3 2.47323 1.45072 0.4
4 3.3832 1.998 0.4
5 4.3436 1.89116 0.4
6 5.24211 3.01861 0.4
7 6.18767 1.2798 0.4
8 7.10109 4.1246 0.4
9 8.01102 1.06222 0.4
10 9.00044 0.0497184 0.4
11 10 0.00176461 0.4
12 11 5.44731e-05 0.4
13 12 1.42646e-06 0.4
14 13 3.1234e-08 0.4
15 14 5.69605e-10 0.4
16 15 8.70568e-12 0.4
17 16 1.01252e-13 0.4
18 17 0 0.4
19 18 0 0.4
20 19 0 0.4
21 20 0 0.4
22 21 0 0.4
23 22 0 0.4
24 23 0 0.4
25 24 0 0.4
26 25 0 0.4
27 26 0 0.4
28 27 0 0.4
29 28 0 0.4
30 29 0 0.4
31 30 0 0.4
32 31 0 0.4
33 32 0 0.4
34 33 0 0.4
35 34 0 0.4
36 35 0 0.4
37 36 0 0.4
38 37 0 0.4
39 38 0 0.4
40 39 0 0.4
41 40 0 0.4
42 41 0 0.4
43 42 0 0.4
44 43 0 0.4
45 44 0 0.4
46 45 0 0.4
47 46 0 0.4
48 47 0 0.4
49 48 0 0.4
50 49 0 0.4
51 50 0 0.4
52 51 0 0.4
53 52 0 0.4
54 53 0 0.4
55 54 0 0.4
56 55 0 0.4
57 56 0 0.4
58 57 0 0.4
59 58 0 0.4
60 59 0 0.4
61 60 0 0.4
62 61 0 0.4
63 62 0 0.4
64 63 0 0.4
65 64 0 0.4
66 65 0 0.4
67 66 0 0.4
68 67 0 0.4
69 68 0 0.4
70 69 0 0.4
71 70 0 0.4
72 71 0 0.4
73 72 0 0.4
74 73 0 0.4
75 74 0 0.4
76 75 0 0.4
77 76 0 0.4
78 77 0 0.4
79 78 0 0.4
80 79 0 0.4
81 80 0 0.4
82 81 0 0.4
83 82 0 0.4
84 83 0 0.4
85 84 0 0.4
86 85 0 0.4
87 86 0 0.4
88 87 1.62004e-14 0.4
89 88 2.75406e-12 0.4
90 89 1.62798e-10 0.4
91 90 7.56464e-09 0.4
92 91 2.77426e-07 0.4
93 92 7.83817e-06 0.4
94 93 0.000164893 0.4
95 94 0.00246069 0.4
96 95.0004 0.0242831 0.4
97 96.0034 0.145434 0.4
98 97.0179 0.505654 0.4
99 98.0618 1.09298 0.4
100 99.1564 1.6198 0.4
ITEM: TIMESTEP
40
ITEM: NUMBER OF ATOMS
100
ITEM: BOX BOUNDS pp pp pp
0.0000000000000000e+00 1.0000000000000000e+02
0.0000000000000000e+00 1.0000000000000000e+00
0.0000000000000000e+00 1.0000000000000000e+00
ITEM: ATOMS id x vx v_vis_r
1 0.505559 -1.67986 0.4
2 1.55877 1.24039 0.4
3 2.49036 0.682741 0.4
4 3.49028 0.869529 0.4
5 4.41525 2.29196 0.4
6 5.36874 0.962441 0.4
7 6.29908 3.38882 0.4
8 7.20996 1.39921 0.4
9 8.16814 2.49977 0.4
10 9.05112 3.41276 0.4
11 10.0031 0.327871 0.4
12 11.0001 0.0130994 0.4
13 12 0.000477431 0.4
14 13 1.60963e-05 0.4
15 14 4.87194e-07 0.4
16 15 1.29823e-08 0.4
17 16 3.01627e-10 0.4
18 17 6.06299e-12 0.4
19 18 1.09353e-13 0.4
20 19 0 0.4
21 20 0 0.4
22 21 0 0.4
23 22 0 0.4
24 23 0 0.4
25 24 0 0.4
26 25 0 0.4
27 26 0 0.4
28 27 0 0.4
29 28 0 0.4
30 29 0 0.4
31 30 0 0.4
32 31 0 0.4
33 32 0 0.4
34 33 0 0.4
35 34 0 0.4
36 35 0 0.4
37 36 0 0.4
38 37 0 0.4
39 38 0 0.4
40 39 0 0.4
41 40 0 0.4
42 41 0 0.4
43 42 0 0.4
44 43 0 0.4
45 44 0 0.4
46 45 0 0.4
47 46 0 0.4
48 47 0 0.4
49 48 0 0.4
50 49 0 0.4
51 50 0 0.4
52 51 0 0.4
53 52 0 0.4
54 53 0 0.4
55 54 0 0.4
56 55 0 0.4
57 56 0 0.4
58 57 0 0.4
59 58 0 0.4
60 59 0 0.4
61 60 0 0.4
62 61 0 0.4
63 62 0 0.4
64 63 0 0.4
65 64 0 0.4
66 65 0 0.4
67 66 0 0.4
68 67 0 0.4
69 68 0 0.4
70 69 0 0.4
71 70 0 0.4
72 71 0 0.4
73 72 0 0.4
74 73 0 0.4
75 74 0 0.4
76 75 0 0.4
77 76 0 0.4
78 77 0 0.4
79 78 0 0.4
80 79 0 0.4
81 80 0 0.4
82 81 0 0.4
83 82 0 0.4
84 83 0 0.4
85 84 0 0.4
86 85 0 0.4
87 86 1.39323e-12 0.4
88 87 6.63729e-11 0.4
89 88 2.34669e-09 0.4
90 89 6.85906e-08 0.4
91 90 1.61913e-06 0.4
92 91 3.01576e-05 0.4
93 92 0.000429496 0.4
94 93.0001 0.0044772 0.4
95 94.0007 0.0321921 0.4
96 95.0042 0.149914 0.4
97 96.0177 0.444029 0.4
98 97.0533 0.897503 0.4
99 98.1245 1.38468 0.4
100 99.2392 1.67752 0.4
ITEM: TIMESTEP
50
ITEM: NUMBER OF ATOMS
100
ITEM: BOX BOUNDS pp pp pp
0.0000000000000000e+00 1.0000000000000000e+02
0.0000000000000000e+00 1.0000000000000000e+00
0.0000000000000000e+00 1.0000000000000000e+00
ITEM: ATOMS id x vx v_vis_r
1 0.417641 -1.77168 0.4
2 1.54285 -1.25923 0.4
3 2.5647 1.17129 0.4
4 3.50475 0.715403 0.4
5 4.50164 0.449912 0.4
6 5.44547 2.30341 0.4
7 6.3842 0.878238 0.4
8 7.34779 2.16426 0.4
9 8.24549 2.78963 0.4
10 9.19724 0.89227 0.4
11 10.1291 4.03477 0.4
12 11.0193 1.75352 0.4
13 12.0008 0.0924825 0.4
14 13 0.00349164 0.4
15 14 0.000128253 0.4
16 15 4.51541e-06 0.4
17 16 1.48216e-07 0.4
18 17 4.44154e-09 0.4
19 18 1.20033e-10 0.4
20 19 2.87557e-12 0.4
21 20 4.4551e-14 0.4
22 21 0 0.4
23 22 0 0.4
24 23 0 0.4
25 24 0 0.4
26 25 0 0.4
27 26 0 0.4
28 27 0 0.4
29 28 0 0.4
30 29 0 0.4
31 30 0 0.4
32 31 0 0.4
33 32 0 0.4
34 33 0 0.4
35 34 0 0.4
36 35 0 0.4
37 36 0 0.4
38 37 0 0.4
39 38 0 0.4
40 39 0 0.4
41 40 0 0.4
42 41 0 0.4
43 42 0 0.4
44 43 0 0.4
45 44 0 0.4
46 45 0 0.4
47 46 0 0.4
48 47 0 0.4
49 48 0 0.4
50 49 0 0.4
51 50 0 0.4
52 51 0 0.4
53 52 0 0.4
54 53 0 0.4
55 54 0 0.4
56 55 0 0.4
57 56 0 0.4
58 57 0 0.4
59 58 0 0.4
60 59 0 0.4
61 60 0 0.4
62 61 0 0.4
63 62 0 0.4
64 63 0 0.4
65 64 0 0.4
66 65 0 0.4
67 66 0 0.4
68 67 0 0.4
69 68 0 0.4
70 69 0 0.4
71 70 0 0.4
72 71 0 0.4
73 72 0 0.4
74 73 0 0.4
75 74 0 0.4
76 75 0 0.4
77 76 0 0.4
78 77 0 0.4
79 78 0 0.4
80 79 0 0.4
81 80 0 0.4
82 81 0 0.4
83 82 0 0.4
84 83 0 0.4
85 84 5.02212e-13 0.4
86 85 2.04449e-11 0.4
87 86 6.12066e-10 0.4
88 87 1.54345e-08 0.4
89 88 3.24772e-07 0.4
90 89 5.6051e-06 0.4
91 90 7.76183e-05 0.4
92 91 0.000837643 0.4
93 92.0001 0.00677105 0.4
94 93.0009 0.0389657 0.4
95 94.0048 0.152305 0.4
96 95.0176 0.403042 0.4
97 96.0483 0.772223 0.4
98 97.1058 1.18371 0.4
99 98.1982 1.54817 0.4
100 99.3233 1.67599 0.4
ITEM: TIMESTEP
60
ITEM: NUMBER OF ATOMS
100
ITEM: BOX BOUNDS pp pp pp
0.0000000000000000e+00 1.0000000000000000e+02
0.0000000000000000e+00 1.0000000000000000e+00
0.0000000000000000e+00 1.0000000000000000e+00
ITEM: ATOMS id x vx v_vis_r
1 0.345828 -0.642237 0.4
2 1.46933 -1.58205 0.4
3 2.55972 -0.956161 0.4
4 3.57045 1.0213 0.4
5 4.51556 0.795514 0.4
6 5.50889 0.209495 0.4
7 6.47232 1.95992 0.4
8 7.3999 1.28907 0.4
9 8.37272 0.892997 0.4
10 9.30069 3.39309 0.4
11 10.2139 1.25951 0.4
12 11.1847 1.62266 0.4
13 12.0783 4.22396 0.4
14 13.006 0.633626 0.4
15 14.0002 0.0256676 0.4
16 15 0.000943677 0.4
17 16 3.45773e-05 0.4
18 17 1.24138e-06 0.4
19 18 4.26672e-08 0.4
20 19 1.37583e-09 0.4
21 20 4.10598e-11 0.4
22 21 1.06517e-12 0.4
23 22 1.62004e-14 0.4
24 23 0 0.4
25 24 0 0.4
26 25 0 0.4
27 26 0 0.4
28 27 0 0.4
29 28 0 0.4
30 29 0 0.4
31 30 0 0.4
32 31 0 0.4
33 32 0 0.4
34 33 0 0.4
35 34 0 0.4
36 35 0 0.4
37 36 0 0.4
38 37 0 0.4
39 38 0 0.4
40 39 0 0.4
41 40 0 0.4
42 41 0 0.4
43 42 0 0.4
44 43 0 0.4
45 44 0 0.4
46 45 0 0.4
47 46 0 0.4
48 47 0 0.4
49 48 0 0.4
50 49 0 0.4
51 50 0 0.4
52 51 0 0.4
53 52 0 0.4
54 53 0 0.4
55 54 0 0.4
56 55 0 0.4
57 56 0 0.4
58 57 0 0.4
59 58 0 0.4
60 59 0 0.4
61 60 0 0.4
62 61 0 0.4
63 62 0 0.4
64 63 0 0.4
65 64 0 0.4
66 65 0 0.4
67 66 0 0.4
68 67 0 0.4
69 68 0 0.4
70 69 0 0.4
71 70 0 0.4
72 71 0 0.4
73 72 0 0.4
74 73 0 0.4
75 74 0 0.4
76 75 0 0.4
77 76 0 0.4
78 77 0 0.4
79 78 0 0.4
80 79 0 0.4
81 80 0 0.4
82 81 0 0.4
83 82 6.48015e-14 0.4
84 83 5.58913e-12 0.4
85 84 1.45674e-10 0.4
86 85 3.31489e-09 0.4
87 86 6.43846e-08 0.4
88 87 1.0546e-06 0.4
89 88 1.43328e-05 0.4
90 89 0.000158319 0.4
91 90 0.00138309 0.4
92 91.0002 0.0092159 0.4
93 92.0012 0.04483 0.4
94 93.0053 0.153672 0.4
95 94.0176 0.373445 0.4
96 95.0449 0.685145 0.4
97 96.0938 1.0356 0.4
98 97.1701 1.37655 0.4
99 98.2778 1.62245 0.4
100 99.3903 0.550197 0.4
ITEM: TIMESTEP
70
ITEM: NUMBER OF ATOMS
100
ITEM: BOX BOUNDS pp pp pp
0.0000000000000000e+00 1.0000000000000000e+02
0.0000000000000000e+00 1.0000000000000000e+00
0.0000000000000000e+00 1.0000000000000000e+00
ITEM: ATOMS id x vx v_vis_r
1 0.375783 1.30378 0.4
2 1.39112 -1.39416 0.4
3 2.49912 -1.36764 0.4
4 3.56892 -0.768611 0.4
5 4.57583 0.863843 0.4
6 5.52476 0.881542 0.4
7 6.51367 0.109923 0.4
8 7.49317 1.38798 0.4
9 8.42043 1.80342 0.4
10 9.38333 0.514359 0.4
11 10.3498 2.17939 0.4
12 11.2474 2.75328 0.4
13 12.2021 0.591443 0.4
14 13.158 3.2341 0.4
15 14.0359 2.86112 0.4
16 15.0017 0.194528 0.4
17 16.0001 0.00715498 0.4
18 17 0.000258489 0.4
19 18 9.39784e-06 0.4
20 19 3.39426e-07 0.4
21 20 1.19592e-08 0.4
22 21 4.03568e-10 0.4
23 22 1.29076e-11 0.4
24 23 3.56408e-13 0.4
25 24 0 0.4
26 25 0 0.4
27 26 0 0.4
28 27 0 0.4
29 28 0 0.4
30 29 0 0.4
31 30 0 0.4
32 31 0 0.4
33 32 0 0.4
34 33 0 0.4
35 34 0 0.4
36 35 0 0.4
37 36 0 0.4
38 37 0 0.4
39 38 0 0.4
40 39 0 0.4
41 40 0 0.4
42 41 0 0.4
43 42 0 0.4
44 43 0 0.4
45 44 0 0.4
46 45 0 0.4
47 46 0 0.4
48 47 0 0.4
49 48 0 0.4
50 49 0 0.4
51 50 0 0.4
52 51 0 0.4
53 52 0 0.4
54 53 0 0.4
55 54 0 0.4
56 55 0 0.4
57 56 0 0.4
58 57 0 0.4
59 58 0 0.4
60 59 0 0.4
61 60 0 0.4
62 61 0 0.4
63 62 0 0.4
64 63 0 0.4
65 64 0 0.4
66 65 0 0.4
67 66 0 0.4
68 67 0 0.4
69 68 0 0.4
70 69 0 0.4
71 70 0 0.4
72 71 0 0.4
73 72 0 0.4
74 73 0 0.4
75 74 0 0.4
76 75 0 0.4
77 76 0 0.4
78 77 0 0.4
79 78 0 0.4
80 79 0 0.4
81 80 0 0.4
82 81 1.18263e-12 0.4
83 82 3.29516e-11 0.4
84 83 6.94008e-10 0.4
85 84 1.27026e-08 0.4
86 85 2.00296e-07 0.4
87 86 2.68592e-06 0.4
88 87 3.01637e-05 0.4
89 88 0.000278177 0.4
90 89 0.00205332 0.4
91 90.0003 0.0117332 0.4
92 91.0015 0.0499713 0.4
93 92.0058 0.154491 0.4
94 93.0177 0.350896 0.4
95 94.0425 0.62098 0.4
96 95.0854 0.924735 0.4
97 96.1507 1.23037 0.4
98 97.2424 1.50093 0.4
99 98.355 1.28581 0.4
100 99.3576 -1.28802 0.4
ITEM: TIMESTEP
80
ITEM: NUMBER OF ATOMS
100
ITEM: BOX BOUNDS pp pp pp
0.0000000000000000e+00 1.0000000000000000e+02
0.0000000000000000e+00 1.0000000000000000e+00
0.0000000000000000e+00 1.0000000000000000e+00
ITEM: ATOMS id x vx v_vis_r
1 0.405859 -0.53583 0.4
2 1.36543 0.669704 0.4
3 2.42766 -1.43107 0.4
4 3.51783 -1.18573 0.4
5 4.57462 -0.650321 0.4
6 5.58067 0.713512 0.4
7 6.5332 0.95703 0.4
8 7.51718 0.101911 0.4
9 8.50701 0.824677 0.4
10 9.44545 2.08432 0.4
11 10.3916 0.692338 0.4
12 11.3739 0.821167 0.4
13 12.3023 3.39685 0.4
14 13.2157 1.20943 0.4
15 14.1947 0.864811 0.4
16 15.1132 4.41915 0.4
17 16.0128 1.28204 0.4
18 17.0005 0.0567155 0.4
19 18 0.00201164 0.4
20 19 7.16667e-05 0.4
21 20 2.57934e-06 0.4
22 21 9.29934e-08 0.4
23 22 3.3139e-09 0.4
24 23 1.15006e-10 0.4
25 24 3.80304e-12 0.4
26 25 8.91021e-14 0.4
27 26 0 0.4
28 27 0 0.4
29 28 0 0.4
30 29 0 0.4
31 30 0 0.4
32 31 0 0.4
33 32 0 0.4
34 33 0 0.4
35 34 0 0.4
36 35 0 0.4
37 36 0 0.4
38 37 0 0.4
39 38 0 0.4
40 39 0 0.4
41 40 0 0.4
42 41 0 0.4
43 42 0 0.4
44 43 0 0.4
45 44 0 0.4
46 45 0 0.4
47 46 0 0.4
48 47 0 0.4
49 48 0 0.4
50 49 0 0.4
51 50 0 0.4
52 51 0 0.4
53 52 0 0.4
54 53 0 0.4
55 54 0 0.4
56 55 0 0.4
57 56 0 0.4
58 57 0 0.4
59 58 0 0.4
60 59 0 0.4
61 60 0 0.4
62 61 0 0.4
63 62 0 0.4
64 63 0 0.4
65 64 0 0.4
66 65 0 0.4
67 66 0 0.4
68 67 0 0.4
69 68 0 0.4
70 69 0 0.4
71 70 0 0.4
72 71 0 0.4
73 72 0 0.4
74 73 0 0.4
75 74 0 0.4
76 75 0 0.4
77 76 0 0.4
78 77 0 0.4
79 78 0 0.4
80 79 1.62004e-13 0.4
81 80 7.38737e-12 0.4
82 81 1.42272e-10 0.4
83 82 2.50263e-09 0.4
84 83 3.83226e-08 0.4
85 84 5.08753e-07 0.4
86 85 5.78442e-06 0.4
87 86 5.55033e-05 0.4
88 87 0.000441118 0.4
89 88.0001 0.00283409 0.4
90 89.0004 0.014274 0.4
91 90.0017 0.0545327 0.4
92 91.0063 0.154997 0.4
93 92.0178 0.333054 0.4
94 93.0408 0.571628 0.4
95 94.0792 0.83921 0.4
96 95.1365 1.11252 0.4
97 96.2159 1.37142 0.4
98 97.318 1.45702 0.4
99 98.3691 -0.908456 0.4
100 99.3346 0.703674 0.4
ITEM: TIMESTEP
90
ITEM: NUMBER OF ATOMS
100
ITEM: BOX BOUNDS pp pp pp
0.0000000000000000e+00 1.0000000000000000e+02
0.0000000000000000e+00 1.0000000000000000e+00
0.0000000000000000e+00 1.0000000000000000e+00
ITEM: ATOMS id x vx v_vis_r
1 0.355691 -0.759825 0.4
2 1.41618 0.569172 0.4
3 2.37448 -0.297254 0.4
4 3.45415 -1.32843 0.4
5 4.53036 -1.0442 0.4
6 5.57845 -0.572976 0.4
7 6.58492 0.573906 0.4
8 7.54125 1.01225 0.4
9 8.52024 0.148332 0.4
10 9.51507 0.425545 0.4
11 10.4711 1.9509 0.4
12 11.4034 1.15206 0.4
13 12.3823 0.340831 0.4
14 13.3512 2.14861 0.4
15 14.2488 2.76916 0.4
16 15.2044 0.44088 0.4
17 16.1798 2.03932 0.4
18 17.0636 4.00373 0.4
19 18.004 0.439869 0.4
20 19.0001 0.0163514 0.4
21 20 0.000570275 0.4
22 21 2.00802e-05 0.4
23 22 7.15034e-07 0.4
24 23 2.56249e-08 0.4
25 24 9.1573e-10 0.4
26 25 3.22468e-11 0.4
27 26 1.07327e-12 0.4
28 27 1.62004e-14 0.4
29 28 0 0.4
30 29 0 0.4
31 30 0 0.4
32 31 0 0.4
33 32 0 0.4
34 33 0 0.4
35 34 0 0.4
36 35 0 0.4
37 36 0 0.4
38 37 0 0.4
39 38 0 0.4
40 39 0 0.4
41 40 0 0.4
42 41 0 0.4
43 42 0 0.4
44 43 0 0.4
45 44 0 0.4
46 45 0 0.4
47 46 0 0.4
48 47 0 0.4
49 48 0 0.4
50 49 0 0.4
51 50 0 0.4
52 51 0 0.4
53 52 0 0.4
54 53 0 0.4
55 54 0 0.4
56 55 0 0.4
57 56 0 0.4
58 57 0 0.4
59 58 0 0.4
60 59 0 0.4
61 60 0 0.4
62 61 0 0.4
63 62 0 0.4
64 63 0 0.4
65 64 0 0.4
66 65 0 0.4
67 66 0 0.4
68 67 0 0.4
69 68 0 0.4
70 69 0 0.4
71 70 0 0.4
72 71 0 0.4
73 72 0 0.4
74 73 0 0.4
75 74 0 0.4
76 75 0 0.4
77 76 0 0.4
78 77 0 0.4
79 78 1.37703e-12 0.4
80 79 2.93227e-11 0.4
81 80 4.92346e-10 0.4
82 81 7.37611e-09 0.4
83 82 9.71532e-08 0.4
84 83 1.11522e-06 0.4
85 84 1.10293e-05 0.4
86 85 9.26562e-05 0.4
87 86 0.000649449 0.4
88 87.0001 0.00371135 0.4
89 88.0005 0.0168076 0.4
90 89.002 0.0586222 0.4
91 90.0067 0.155318 0.4
92 91.0179 0.318533 0.4
93 92.0395 0.532415 0.4
94 93.0745 0.771369 0.4
95 94.1258 1.0173 0.4
96 95.1959 1.25719 0.4
97 96.2866 1.42664 0.4
98 97.3655 0.00724657 0.4
99 98.3184 -0.325473 0.4
100 99.3871 0.730739 0.4
ITEM: TIMESTEP
100
ITEM: NUMBER OF ATOMS
100
ITEM: BOX BOUNDS pp pp pp
0.0000000000000000e+00 1.0000000000000000e+02
0.0000000000000000e+00 1.0000000000000000e+00
0.0000000000000000e+00 1.0000000000000000e+00
ITEM: ATOMS id x vx v_vis_r
1 0.370575 1.07645 0.4
2 1.39223 -1.10203 0.4
3 2.40881 1.08787 0.4
4 3.39382 -0.849386 0.4
5 4.47338 -1.21303 0.4
6 5.53922 -0.933781 0.4
7 6.58118 -0.520171 0.4
8 7.58857 0.446691 0.4
9 8.54904 1.04108 0.4
10 9.52331 0.226468 0.4
11 10.5195 0.202079 0.4
12 11.4926 1.48148 0.4
13 12.4214 1.68716 0.4
14 13.387 0.362009 0.4
15 14.3744 0.766164 0.4
16 15.3039 3.39521 0.4
17 16.2167 1.20777 0.4
18 17.1996 0.426563 0.4
19 18.1477 3.72358 0.4
20 19.0272 2.38658 0.4
21 20.0012 0.134691 0.4
22 21 0.00471488 0.4
23 22 0.000162811 0.4
24 23 5.67676e-06 0.4
25 24 2.00095e-07 0.4
26 25 7.11403e-09 0.4
27 26 2.5358e-10 0.4
28 27 8.93451e-12 0.4
29 28 2.95657e-13 0.4
30 29 0 0.4
31 30 0 0.4
32 31 0 0.4
33 32 0 0.4
34 33 0 0.4
35 34 0 0.4
36 35 0 0.4
37 36 0 0.4
38 37 0 0.4
39 38 0 0.4
40 39 0 0.4
41 40 0 0.4
42 41 0 0.4
43 42 0 0.4
44 43 0 0.4
45 44 0 0.4
46 45 0 0.4
47 46 0 0.4
48 47 0 0.4
49 48 0 0.4
50 49 0 0.4
51 50 0 0.4
52 51 0 0.4
53 52 0 0.4
54 53 0 0.4
55 54 0 0.4
56 55 0 0.4
57 56 0 0.4
58 57 0 0.4
59 58 0 0.4
60 59 0 0.4
61 60 0 0.4
62 61 0 0.4
63 62 0 0.4
64 63 0 0.4
65 64 0 0.4
66 65 0 0.4
67 66 0 0.4
68 67 0 0.4
69 68 0 0.4
70 69 0 0.4
71 70 0 0.4
72 71 0 0.4
73 72 0 0.4
74 73 0 0.4
75 74 0 0.4
76 75 0 0.4
77 76 1.62004e-13 0.4
78 77 5.86454e-12 0.4
79 78 9.67972e-11 0.4
80 79 1.42716e-09 0.4
81 80 1.86714e-08 0.4
82 81 2.15972e-07 0.4
83 82 2.18735e-06 0.4
84 83 1.91848e-05 0.4
85 84 0.000143742 0.4
86 85 0.000904245 0.4
87 86.0001 0.00467218 0.4
88 87.0006 0.0193145 0.4
89 88.0023 0.0623223 0.4
90 89.0071 0.155526 0.4
91 90.0181 0.306453 0.4
92 91.0384 0.500457 0.4
93 92.0708 0.716272 0.4
94 93.1174 0.939292 0.4
95 94.1804 1.16014 0.4
96 95.2614 1.34802 0.4
97 96.3479 0.732411 0.4
98 97.3213 -1.04213 0.4
99 98.3526 1.16646 0.4
100 99.3702 -1.10861 0.4
ITEM: TIMESTEP
110
ITEM: NUMBER OF ATOMS
100
ITEM: BOX BOUNDS pp pp pp
0.0000000000000000e+00 1.0000000000000000e+02
0.0000000000000000e+00 1.0000000000000000e+00
0.0000000000000000e+00 1.0000000000000000e+00
ITEM: ATOMS id x vx v_vis_r
1 0.402507 -0.282004 0.4
2 1.36305 0.355923 0.4
3 2.41992 -0.75566 0.4
4 3.39992 1.00886 0.4
5 4.41377 -1.04497 0.4
6 5.48773 -1.10935 0.4
7 6.54575 -0.846287 0.4
8 7.5832 -0.482398 0.4
9 8.59163 0.333031 0.4
10 9.55658 1.04045 0.4
11 10.5267 0.322941 0.4
12 11.5219 0.100873 0.4
13 12.5076 0.930525 0.4
14 13.445 2.01957 0.4
15 14.3933 0.639094 0.4
16 15.3817 0.252982 0.4
17 16.3523 2.10645 0.4
18 17.25 2.8018 0.4
19 18.2054 0.381475 0.4
20 19.1923 1.04485 0.4
21 20.0999 4.52063 0.4
22 21.0093 0.981122 0.4
23 22.0003 0.0397684 0.4
24 23 0.00136326 0.4
25 24 4.67498e-05 0.4
26 25 1.61684e-06 0.4
27 26 5.64702e-08 0.4
28 27 1.99059e-09 0.4
29 28 7.04878e-11 0.4
30 29 2.49081e-12 0.4
31 30 8.5052e-14 0.4
32 31 0 0.4
33 32 0 0.4
34 33 0 0.4
35 34 0 0.4
36 35 0 0.4
37 36 0 0.4
38 37 0 0.4
39 38 0 0.4
40 39 0 0.4
41 40 0 0.4
42 41 0 0.4
43 42 0 0.4
44 43 0 0.4
45 44 0 0.4
46 45 0 0.4
47 46 0 0.4
48 47 0 0.4
49 48 0 0.4
50 49 0 0.4
51 50 0 0.4
52 51 0 0.4
53 52 0 0.4
54 53 0 0.4
55 54 0 0.4
56 55 0 0.4
57 56 0 0.4
58 57 0 0.4
59 58 0 0.4
60 59 0 0.4
61 60 0 0.4
62 61 0 0.4
63 62 0 0.4
64 63 0 0.4
65 64 0 0.4
66 65 0 0.4
67 66 0 0.4
68 67 0 0.4
69 68 0 0.4
70 69 0 0.4
71 70 0 0.4
72 71 0 0.4
73 72 0 0.4
74 73 0 0.4
75 74 0 0.4
76 75 9.88223e-13 0.4
77 76 1.91488e-11 0.4
78 77 2.77026e-10 0.4
79 78 3.60713e-09 0.4
80 79 4.19822e-08 0.4
81 80 4.33446e-07 0.4
82 81 3.93478e-06 0.4
83 82 3.10728e-05 0.4
84 83 0.000210652 0.4
85 84 0.00120566 0.4
86 85.0002 0.00570497 0.4
87 86.0007 0.0217828 0.4
88 87.0025 0.065697 0.4
89 88.0075 0.155666 0.4
90 89.0183 0.296225 0.4
91 90.0376 0.473876 0.4
92 91.0678 0.670637 0.4
93 92.1107 0.874411 0.4
94 93.1679 1.07795 0.4
95 94.2412 1.26435 0.4
96 95.3256 1.06624 0.4
97 96.3305 -1.16149 0.4
98 97.3211 0.961469 0.4
99 98.3789 -0.490379 0.4
100 99.3395 0.355321 0.4
ITEM: TIMESTEP
120
ITEM: NUMBER OF ATOMS
100
ITEM: BOX BOUNDS pp pp pp
0.0000000000000000e+00 1.0000000000000000e+02
0.0000000000000000e+00 1.0000000000000000e+00
0.0000000000000000e+00 1.0000000000000000e+00
ITEM: ATOMS id x vx v_vis_r
1 0.360226 -0.779822 0.4
2 1.40536 0.663112 0.4
3 2.37472 -0.509289 0.4
4 3.43446 -0.164803 0.4
5 4.39644 0.596323 0.4
6 5.43115 -1.0823 0.4
7 6.49875 -1.02042 0.4
8 7.55072 -0.775739 0.4
9 8.58472 -0.454065 0.4
10 9.59415 0.233567 0.4
11 10.5638 1.01018 0.4
12 11.5305 0.42886 0.4
13 12.5235 0.0712546 0.4
14 13.5164 0.504327 0.4
15 14.4702 1.94721 0.4
16 15.4041 1.10835 0.4
17 16.3847 0.191854 0.4
18 17.3748 0.725252 0.4
19 18.3055 3.38772 0.4
20 19.2173 1.22884 0.4
21 20.2017 0.22368 0.4
22 21.174 2.46378 0.4
23 22.0525 3.67436 0.4
24 23.0029 0.325342 0.4
25 24.0001 0.0116289 0.4
26 25 0.000395311 0.4
27 26 1.34858e-05 0.4
28 27 4.63319e-07 0.4
29 28 1.60539e-08 0.4
30 29 5.61092e-10 0.4
31 30 1.98171e-11 0.4
32 31 7.08766e-13 0.4
33 32 4.05009e-15 0.4
34 33 0 0.4
35 34 0 0.4
36 35 0 0.4
37 36 0 0.4
38 37 0 0.4
39 38 0 0.4
40 39 0 0.4
41 40 0 0.4
42 41 0 0.4
43 42 0 0.4
44 43 0 0.4
45 44 0 0.4
46 45 0 0.4
47 46 0 0.4
48 47 0 0.4
49 48 0 0.4
50 49 0 0.4
51 50 0 0.4
52 51 0 0.4
53 52 0 0.4
54 53 0 0.4
55 54 0 0.4
56 55 0 0.4
57 56 0 0.4
58 57 0 0.4
59 58 0 0.4
60 59 0 0.4
61 60 0 0.4
62 61 0 0.4
63 62 0 0.4
64 63 0 0.4
65 64 0 0.4
66 65 0 0.4
67 66 0 0.4
68 67 0 0.4
69 68 0 0.4
70 69 0 0.4
71 70 0 0.4
72 71 0 0.4
73 72 0 0.4
74 73 6.48015e-14 0.4
75 74 3.75849e-12 0.4
76 75 5.385e-11 0.4
77 76 6.99905e-10 0.4
78 77 8.1872e-09 0.4
79 78 8.58773e-08 0.4
80 79 8.0183e-07 0.4
81 80 6.60705e-06 0.4
82 81 4.75485e-05 0.4
83 82 0.000295041 0.4
84 83 0.0015532 0.4
85 84.0002 0.0067995 0.4
86 85.0008 0.0242049 0.4
87 86.0028 0.068796 0.4
88 87.0079 0.155764 0.4
89 88.0185 0.287442 0.4
90 89.037 0.451395 0.4
91 90.0653 0.632209 0.4
92 91.1051 0.819674 0.4
93 92.1578 1.00793 0.4
94 93.2247 1.1866 0.4
95 94.3041 1.17298 0.4
96 95.3364 -0.821389 0.4
97 96.3006 0.412425 0.4
98 97.3692 0.423646 0.4
99 98.3332 -0.615933 0.4
100 99.3836 0.775927 0.4
ITEM: TIMESTEP
130
ITEM: NUMBER OF ATOMS
100
ITEM: BOX BOUNDS pp pp pp
0.0000000000000000e+00 1.0000000000000000e+02
0.0000000000000000e+00 1.0000000000000000e+00
0.0000000000000000e+00 1.0000000000000000e+00
ITEM: ATOMS id x vx v_vis_r
1 0.367679 0.932981 0.4
2 1.39199 -0.950003 0.4
3 2.39479 0.96825 0.4
4 3.39551 -0.908121 0.4
5 4.43854 0.391718 0.4
6 5.39909 0.121862 0.4
7 6.44564 -1.0601 0.4
8 7.50743 -0.944799 0.4
9 8.5546 -0.717902 0.4
10 9.58588 -0.431823 0.4
11 10.5962 0.148297 0.4
12 11.5706 0.952863 0.4
13 12.5349 0.536867 0.4
14 13.5248 0.0821463 0.4
15 14.5211 0.248728 0.4
16 15.4921 1.51634 0.4
17 16.4213 1.64553 0.4
18 17.3879 0.324128 0.4
19 18.3815 0.207639 0.4
20 19.3534 2.06087 0.4
21 20.2513 2.83968 0.4
22 21.2058 0.364759 0.4
23 22.1982 0.472403 0.4
24 23.1372 4.07287 0.4
25 24.0211 1.97642 0.4
26 25.0009 0.0989718 0.4
27 26 0.00339469 0.4
28 27 0.000114913 0.4
29 28 3.90445e-06 0.4
30 29 1.33425e-07 0.4
31 30 4.59217e-09 0.4
32 31 1.59436e-10 0.4
33 32 5.55673e-12 0.4
34 33 1.70104e-13 0.4
35 34 0 0.4
36 35 0 0.4
37 36 0 0.4
38 37 0 0.4
39 38 0 0.4
40 39 0 0.4
41 40 0 0.4
42 41 0 0.4
43 42 0 0.4
44 43 0 0.4
45 44 0 0.4
46 45 0 0.4
47 46 0 0.4
48 47 0 0.4
49 48 0 0.4
50 49 0 0.4
51 50 0 0.4
52 51 0 0.4
53 52 0 0.4
54 53 0 0.4
55 54 0 0.4
56 55 0 0.4
57 56 0 0.4
58 57 0 0.4
59 58 0 0.4
60 59 0 0.4
61 60 0 0.4
62 61 0 0.4
63 62 0 0.4
64 63 0 0.4
65 64 0 0.4
66 65 0 0.4
67 66 0 0.4
68 67 0 0.4
69 68 0 0.4
70 69 0 0.4
71 70 0 0.4
72 71 0 0.4
73 72 4.86011e-13 0.4
74 73 1.06112e-11 0.4
75 74 1.36391e-10 0.4
76 75 1.60095e-09 0.4
77 76 1.70179e-08 0.4
78 77 1.62665e-07 0.4
79 78 1.38823e-06 0.4
80 79 1.04903e-05 0.4
81 80 6.94799e-05 0.4
82 81 0.000398324 0.4
83 82.0001 0.00194587 0.4
84 83.0002 0.00794677 0.4
85 84.0009 0.0265766 0.4
86 85.0031 0.0716591 0.4
87 86.0082 0.155836 0.4
88 87.0187 0.279809 0.4
89 88.0365 0.432115 0.4
90 89.0633 0.599395 0.4
91 90.1005 0.772906 0.4
92 91.1494 0.94776 0.4
93 92.2111 1.117 0.4
94 93.285 1.1829 0.4
95 94.3353 -0.281153 0.4
96 95.2918 -0.231885 0.4
97 96.3474 0.945588 0.4
98 97.3424 -1.04938 0.4
99 98.3517 1.02455 0.4
100 99.3752 -0.95815 0.4
ITEM: TIMESTEP
140
ITEM: NUMBER OF ATOMS
100
ITEM: BOX BOUNDS pp pp pp
0.0000000000000000e+00 1.0000000000000000e+02
0.0000000000000000e+00 1.0000000000000000e+00
0.0000000000000000e+00 1.0000000000000000e+00
ITEM: ATOMS id x vx v_vis_r
1 0.39978 -0.141564 0.4
2 1.36223 0.203104 0.4
3 2.41426 -0.481864 0.4
4 3.38615 0.678828 0.4
5 4.41591 -0.943443 0.4
6 5.43654 0.75859 0.4
7 6.40584 -0.25414 0.4
8 7.45765 -1.01753 0.4
9 8.51442 -0.880308 0.4
10 9.55769 -0.66976 0.4
11 10.5868 -0.413637 0.4
12 11.5978 0.0765988 0.4
13 12.5768 0.873301 0.4
14 13.5398 0.639819 0.4
15 14.5261 0.117574 0.4
16 15.5235 0.119111 0.4
17 16.5075 0.973228 0.4
18 17.4444 1.99625 0.4
19 18.3936 0.619849 0.4
20 19.3836 0.108792 0.4
21 20.3751 0.692795 0.4
22 21.3071 3.37578 0.4
23 22.218 1.26016 0.4
24 23.2026 0.140299 0.4
25 24.1894 1.30464 0.4
26 25.0877 4.47473 0.4
27 26.007 0.760533 0.4
28 27.0003 0.0292917 0.4
29 28 0.000991334 0.4
30 29 3.34704e-05 0.4
31 30 1.13368e-06 0.4
32 31 3.85752e-08 0.4
33 32 1.32031e-09 0.4
34 33 4.54258e-11 0.4
35 34 1.69294e-12 0.4
36 35 3.24007e-14 0.4
37 36 0 0.4
38 37 0 0.4
39 38 0 0.4
40 39 0 0.4
41 40 0 0.4
42 41 0 0.4
43 42 0 0.4
44 43 0 0.4
45 44 0 0.4
46 45 0 0.4
47 46 0 0.4
48 47 0 0.4
49 48 0 0.4
50 49 0 0.4
51 50 0 0.4
52 51 0 0.4
53 52 0 0.4
54 53 0 0.4
55 54 0 0.4
56 55 0 0.4
57 56 0 0.4
58 57 0 0.4
59 58 0 0.4
60 59 0 0.4
61 60 0 0.4
62 61 0 0.4
63 62 0 0.4
64 63 0 0.4
65 64 0 0.4
66 65 0 0.4
67 66 0 0.4
68 67 0 0.4
69 68 0 0.4
70 69 0 0.4
71 70 1.62004e-14 0.4
72 71 1.92784e-12 0.4
73 72 2.64552e-11 0.4
74 73 3.14174e-10 0.4
75 74 3.37404e-09 0.4
76 75 3.28934e-08 0.4
77 76 2.89129e-07 0.4
78 77 2.27543e-06 0.4
79 78 1.59031e-05 0.4
80 79 9.77316e-05 0.4
81 80 0.00052169 0.4
82 81.0001 0.00238235 0.4
83 82.0003 0.00913896 0.4
84 83.0011 0.0288953 0.4
85 84.0033 0.0743182 0.4
86 85.0086 0.155893 0.4
87 86.0189 0.273108 0.4
88 87.036 0.415385 0.4
89 88.0616 0.571039 0.4
90 89.0967 0.732496 0.4
91 90.1423 0.895588 0.4
92 91.1996 1.05532 0.4
93 92.2685 1.15543 0.4
94 93.3281 0.214238 0.4
95 94.2917 -0.737197 0.4
96 95.3234 1.06181 0.4
97 96.3522 -0.838573 0.4
98 97.3258 0.621163 0.4
99 98.3815 -0.265445 0.4
100 99.343 0.172311 0.4
ITEM: TIMESTEP
150
ITEM: NUMBER OF ATOMS
100
ITEM: BOX BOUNDS pp pp pp
0.0000000000000000e+00 1.0000000000000000e+02
0.0000000000000000e+00 1.0000000000000000e+00
0.0000000000000000e+00 1.0000000000000000e+00
ITEM: ATOMS id x vx v_vis_r
1 0.362915 -0.768837 0.4
2 1.39926 0.680528 0.4
3 2.3747 -0.566716 0.4
4 3.42244 0.178631 0.4
5 4.38598 0.120461 0.4
6 5.43242 -0.79071 0.4
7 6.43225 0.909193 0.4
8 7.41445 -0.500364 0.4
9 8.46765 -0.96972 0.4
10 9.52013 -0.824954 0.4
11 10.5602 -0.629139 0.4
12 11.5875 -0.398251 0.4
13 12.5991 0.0173689 0.4
14 13.5824 0.777831 0.4
15 14.5452 0.730581 0.4
16 15.5277 0.169915 0.4
17 16.5247 0.0631335 0.4
18 17.5167 0.537915 0.4
19 18.4695 1.9502 0.4
20 19.404 1.08617 0.4
21 20.3852 0.157772 0.4
22 21.3813 0.182987 0.4
23 22.3543 2.01421 0.4
24 23.2526 2.8788 0.4
25 24.2061 0.366346 0.4
26 25.2008 0.205795 0.4
27 26.1671 2.88468 0.4
28 27.0432 3.29437 0.4
29 28.0022 0.245486 0.4
30 29.0001 0.00860039 0.4
31 30 0.00028972 0.4
32 31 9.76402e-06 0.4
33 32 3.29911e-07 0.4
34 33 1.11877e-08 0.4
35 34 3.81203e-10 0.4
36 35 1.33005e-11 0.4
37 36 3.64508e-13 0.4
38 37 0 0.4
39 38 0 0.4
40 39 0 0.4
41 40 0 0.4
42 41 0 0.4
43 42 0 0.4
44 43 0 0.4
45 44 0 0.4
46 45 0 0.4
47 46 0 0.4
48 47 0 0.4
49 48 0 0.4
50 49 0 0.4
51 50 0 0.4
52 51 0 0.4
53 52 0 0.4
54 53 0 0.4
55 54 0 0.4
56 55 0 0.4
57 56 0 0.4
58 57 0 0.4
59 58 0 0.4
60 59 0 0.4
61 60 0 0.4
62 61 0 0.4
63 62 0 0.4
64 63 0 0.4
65 64 0 0.4
66 65 0 0.4
67 66 0 0.4
68 67 0 0.4
69 68 0 0.4
70 69 1.62004e-13 0.4
71 70 5.21652e-12 0.4
72 71 6.15938e-11 0.4
73 72 6.69383e-10 0.4
74 73 6.63676e-09 0.4
75 74 5.98169e-08 0.4
76 75 4.87229e-07 0.4
77 76 3.5623e-06 0.4