LAMMPS (7 Feb 2024 - Update 1)
OMP_NUM_THREADS environment is not set. Defaulting to 1 thread. (src/comm.cpp:98)
  using 1 OpenMP thread(s) per MPI task

# --- Initialization ---
units           si
atom_style      sphere
boundary        f f f
newton          off
comm_modify     vel yes

# ==========================================
# 1. PARAMETERS
# ==========================================
variable        n       equal 100
variable        r       equal 0.005
variable        d       equal 2.0*${r}
variable        d       equal 2.0*0.005

# Material (Stable)
variable        den     equal 1200.0
variable        kn      equal 5.0e7

# Spacing (Touching)
variable        spacing equal 1.0*${d}
variable        spacing equal 1.0*0.01

# --- CRUCIAL FIX: WALL POSITIONS ---
# Atom 1 is at 0.0. Radius is 0.005.
# Wall L must be at -0.005 to just touch the surface (not overlapping center).
variable        wall_L_pos equal -${r}
variable        wall_L_pos equal -0.005

# Last Atom is at (N-1)*d.
# Wall R must be at (N-1)*d + r
variable        last_atom equal (${n}-1)*${spacing}
variable        last_atom equal (100-1)*${spacing}
variable        last_atom equal (100-1)*0.01
variable        wall_R_pos equal ${last_atom}+${r}
variable        wall_R_pos equal 0.99+${r}
variable        wall_R_pos equal 0.99+0.005

# --- VISUAL TRICK ---
variable        vis_r   atom  0.85*${r}
variable        vis_r   atom  0.85*0.005

# ==========================================
# 2. GEOMETRY
# ==========================================
# Box includes the walls
variable        box_L equal ${wall_L_pos}-0.02
variable        box_L equal -0.005-0.02
variable        box_R equal ${wall_R_pos}+0.02
variable        box_R equal 0.995+0.02

region          box block ${box_L} ${box_R} -0.05 0.05 -0.05 0.05 units box
region          box block -0.025 ${box_R} -0.05 0.05 -0.05 0.05 units box
region          box block -0.025 1.015 -0.05 0.05 -0.05 0.05 units box
create_box      1 box
Created orthogonal box = (-0.025 -0.05 -0.05) to (1.015 0.05 0.05)
  1 by 1 by 1 MPI processor grid

lattice         sc ${spacing}
lattice         sc 0.01
Lattice spacing in x,y,z = 0.01 0.01 0.01
region          chain block 0 ${n} 0 1 0 1 units lattice
region          chain block 0 100 0 1 0 1 units lattice
create_atoms    1 region chain
Created 404 atoms
  using lattice units in orthogonal box = (-0.025 -0.05 -0.05) to (1.015 0.05 0.05)
  create_atoms CPU = 0.001 seconds

set             group all density ${den}
set             group all density 1200
Setting atom values ...
  404 settings made for density
set             group all diameter ${d}
set             group all diameter 0.01
Setting atom values ...
  404 settings made for diameter

# ==========================================
# 3. INTERACTION
# ==========================================
pair_style      gran/hertz/history ${kn} 0.0 50.0 0.0 0.5 0
pair_style      gran/hertz/history 50000000 0.0 50.0 0.0 0.5 0
pair_coeff      * *

# Walls at corrected positions (Just touching)
fix             wall_L all wall/gran hertz/history ${kn} 0.0 50.0 0.0 0.5 0 xplane ${wall_L_pos} 1000.0
fix             wall_L all wall/gran hertz/history 50000000 0.0 50.0 0.0 0.5 0 xplane ${wall_L_pos} 1000.0
fix             wall_L all wall/gran hertz/history 50000000 0.0 50.0 0.0 0.5 0 xplane -0.005 1000.0
fix             wall_R all wall/gran hertz/history ${kn} 0.0 50.0 0.0 0.5 0 xplane ${wall_R_pos} 1000.0
fix             wall_R all wall/gran hertz/history 50000000 0.0 50.0 0.0 0.5 0 xplane ${wall_R_pos} 1000.0
fix             wall_R all wall/gran hertz/history 50000000 0.0 50.0 0.0 0.5 0 xplane 0.995 1000.0

fix             int all nve/sphere

# ==========================================
# 4. RUN & LOGGING
# ==========================================
timestep        1.0e-8

# LOGGING FOR MATLAB
thermo          100
thermo_style    custom step etotal ke pe

# Relax
velocity        all set 0.0 0.0 0.0
run             1000
Generated 0 of 0 mixed pair_coeff terms from geometric mixing rule
Neighbor list info ...
  update: every = 1 steps, delay = 0 steps, check = yes
  max neighbors/atom: 2000, page size: 100000
  master list distance cutoff = 0.011
  ghost atom cutoff = 0.011
  binsize = 0.0055, bins = 190 19 19
  1 neighbor lists, perpetual/occasional/extra = 1 0 0
  (1) pair gran/hertz/history, perpetual
      attributes: half, newton off, size, history
      pair build: half/size/bin/atomonly/newtoff
      stencil: full/bin/3d
      bin: standard
Per MPI rank memory allocation (min/avg/max) = 11.12 | 11.12 | 11.12 Mbytes
   Step         TotEng         KinEng         PotEng    
         0   0              0              0            
       100   1.8811058e-49  1.8811058e-49  0            
       200   7.5244231e-49  7.5244231e-49  0            
       300   1.6929952e-48  1.6929952e-48  0            
       400   3.0097692e-48  3.0097692e-48  0            
       500   4.7027644e-48  4.7027644e-48  0            
       600   6.7719808e-48  6.7719808e-48  0            
       700   9.2174183e-48  9.2174183e-48  0            
       800   1.2039077e-47  1.2039077e-47  0            
       900   1.5236957e-47  1.5236957e-47  0            
      1000   1.8811058e-47  1.8811058e-47  0            
Loop time of 0.0142449 on 1 procs for 1000 steps with 404 atoms

102.9% CPU use with 1 MPI tasks x 1 OpenMP threads

MPI task timing breakdown:
Section |  min time  |  avg time  |  max time  |%varavg| %total
---------------------------------------------------------------
Pair    | 0.0047275  | 0.0047275  | 0.0047275  |   0.0 | 33.19
Neigh   | 0          | 0          | 0          |   0.0 |  0.00
Comm    | 4.7855e-05 | 4.7855e-05 | 4.7855e-05 |   0.0 |  0.34
Output  | 0.00024107 | 0.00024107 | 0.00024107 |   0.0 |  1.69
Modify  | 0.0083877  | 0.0083877  | 0.0083877  |   0.0 | 58.88
Other   |            | 0.0008407  |            |       |  5.90

Nlocal:            404 ave         404 max         404 min
Histogram: 1 0 0 0 0 0 0 0 0 0
Nghost:              0 ave           0 max           0 min
Histogram: 1 0 0 0 0 0 0 0 0 0
Neighs:            804 ave         804 max         804 min
Histogram: 1 0 0 0 0 0 0 0 0 0

Total # of neighbors = 804
Ave neighs/atom = 1.990099
Neighbor list builds = 0
Dangerous builds = 0

# STRIKE!
group           striker id 1
1 atoms in group striker
velocity        striker set 1.0 0.0 0.0

# Dump for Visualization
dump            1 all custom 500 dump.soliton_geo_fix id x vx fx v_vis_r
dump_modify     1 format line "%d %.15e %.15e %.15e %.15e"
dump_modify     1 sort id

# Run long enough
run             200000
Generated 0 of 0 mixed pair_coeff terms from geometric mixing rule
Per MPI rank memory allocation (min/avg/max) = 11.12 | 11.12 | 11.12 Mbytes
   Step         TotEng         KinEng         PotEng    
      1000   0.031415927    0.031415927    0            
      1100   0.031415927    0.031415927    0            
      1200   0.031415927    0.031415927    0            
      1300   0.031415927    0.031415927    0            
      1400   0.031415926    0.031415926    0            
      1500   0.031415926    0.031415926    0            
      1600   0.031415926    0.031415926    0            
      1700   0.031415926    0.031415926    0            
      1800   0.031415926    0.031415926    0            
      1900   0.031415926    0.031415926    0            
      2000   0.031415926    0.031415926    0            
      2100   0.031415926    0.031415926    0            
      2200   0.031415926    0.031415926    0            
      2300   0.031415926    0.031415926    0            
      2400   0.031415926    0.031415926    0            
      2500   0.031415926    0.031415926    0            
      2600   0.031415926    0.031415926    0            
      2700   0.031415926    0.031415926    0            
      2800   0.031415926    0.031415926    0            
      2900   0.031415926    0.031415926    0            
      3000   0.031415926    0.031415926    0            
      3100   0.031415926    0.031415926    0            
      3200   0.031415926    0.031415926    0            
      3300   0.031415926    0.031415926    0            
      3400   0.031415926    0.031415926    0            
      3500   0.031415926    0.031415926    0            
      3600   0.031415926    0.031415926    0            
      3700   0.031415926    0.031415926    0            
      3800   0.031415926    0.031415926    0            
      3900   0.031415926    0.031415926    0            
      4000   0.031415926    0.031415926    0            
      4100   0.031415926    0.031415926    0            
      4200   0.031415926    0.031415926    0            
      4300   0.031415925    0.031415925    0            
      4400   0.031415925    0.031415925    0            
      4500   0.031415925    0.031415925    0            
      4600   0.031415925    0.031415925    0            
      4700   0.031415925    0.031415925    0            
      4800   0.031415925    0.031415925    0            
      4900   0.031415925    0.031415925    0            
      5000   0.031415925    0.031415925    0            
      5100   0.031415925    0.031415925    0            
      5200   0.031415925    0.031415925    0            
      5300   0.031415925    0.031415925    0            
      5400   0.031415925    0.031415925    0            
      5500   0.031415925    0.031415925    0            
      5600   0.031415925    0.031415925    0            
      5700   0.031415925    0.031415925    0            
      5800   0.031415925    0.031415925    0            
      5900   0.031415925    0.031415925    0            
      6000   0.031415925    0.031415925    0            
      6100   0.031415924    0.031415924    0            
      6200   0.031415924    0.031415924    0            
      6300   0.031415924    0.031415924    0            
      6400   0.031415924    0.031415924    0            
      6500   0.031415924    0.031415924    0            
      6600   0.031415924    0.031415924    0            
      6700   0.031415924    0.031415924    0            
      6800   0.031415924    0.031415924    0            
      6900   0.031415924    0.031415924    0            
      7000   0.031415924    0.031415924    0            
      7100   0.031415924    0.031415924    0            
      7200   0.031415924    0.031415924    0            
      7300   0.031415924    0.031415924    0            
      7400   0.031415924    0.031415924    0            
      7500   0.031415923    0.031415923    0            
      7600   0.031415923    0.031415923    0            
      7700   0.031415923    0.031415923    0            
      7800   0.031415923    0.031415923    0            
      7900   0.031415923    0.031415923    0            
      8000   0.031415923    0.031415923    0            
      8100   0.031415923    0.031415923    0            
      8200   0.031415923    0.031415923    0            
      8300   0.031415923    0.031415923    0            
      8400   0.031415923    0.031415923    0            
      8500   0.031415923    0.031415923    0            
      8600   0.031415923    0.031415923    0            
      8700   0.031415922    0.031415922    0            
      8800   0.031415922    0.031415922    0            
      8900   0.031415922    0.031415922    0            
      9000   0.031415922    0.031415922    0            
      9100   0.031415922    0.031415922    0            
      9200   0.031415922    0.031415922    0            
      9300   0.031415922    0.031415922    0            
      9400   0.031415922    0.031415922    0            
      9500   0.031415922    0.031415922    0            
      9600   0.031415922    0.031415922    0            
      9700   0.031415922    0.031415922    0            
      9800   0.031415921    0.031415921    0            
      9900   0.031415921    0.031415921    0            
     10000   0.031415921    0.031415921    0            
     10100   0.031415921    0.031415921    0            
     10200   0.031415921    0.031415921    0            
     10300   0.031415921    0.031415921    0            
     10400   0.031415921    0.031415921    0            
     10500   0.031415921    0.031415921    0            
     10600   0.031415921    0.031415921    0            
     10700   0.031415921    0.031415921    0            
     10800   0.031415921    0.031415921    0            
     10900   0.03141592     0.03141592     0            
     11000   0.03141592     0.03141592     0            
     11100   0.03141592     0.03141592     0            
     11200   0.03141592     0.03141592     0            
     11300   0.03141592     0.03141592     0            
     11400   0.03141592     0.03141592     0            
     11500   0.03141592     0.03141592     0            
     11600   0.03141592     0.03141592     0            
     11700   0.03141592     0.03141592     0            
     11800   0.031415919    0.031415919    0            
     11900   0.031415919    0.031415919    0            
     12000   0.031415919    0.031415919    0            
     12100   0.031415919    0.031415919    0            
     12200   0.031415919    0.031415919    0            
     12300   0.031415919    0.031415919    0            
     12400   0.031415919    0.031415919    0            
     12500   0.031415919    0.031415919    0            
     12600   0.031415919    0.031415919    0            
     12700   0.031415918    0.031415918    0            
     12800   0.031415918    0.031415918    0            
     12900   0.031415918    0.031415918    0            
     13000   0.031415918    0.031415918    0            
     13100   0.031415918    0.031415918    0            
     13200   0.031415918    0.031415918    0            
     13300   0.031415918    0.031415918    0            
     13400   0.031415918    0.031415918    0            
     13500   0.031415917    0.031415917    0            
     13600   0.031415917    0.031415917    0            
     13700   0.031415917    0.031415917    0            
     13800   0.031415917    0.031415917    0            
     13900   0.031415917    0.031415917    0            
     14000   0.031415917    0.031415917    0            
     14100   0.031415917    0.031415917    0            
     14200   0.031415917    0.031415917    0            
     14300   0.031415916    0.031415916    0            
     14400   0.031415916    0.031415916    0            
     14500   0.031415916    0.031415916    0            
     14600   0.031415916    0.031415916    0            
     14700   0.031415916    0.031415916    0            
     14800   0.031415916    0.031415916    0            
     14900   0.031415916    0.031415916    0            
     15000   0.031415916    0.031415916    0            
     15100   0.031415915    0.031415915    0            
     15200   0.031415915    0.031415915    0            
     15300   0.031415915    0.031415915    0            
     15400   0.031415915    0.031415915    0            
     15500   0.031415915    0.031415915    0            
     15600   0.031415915    0.031415915    0            
     15700   0.031415915    0.031415915    0            
     15800   0.031415914    0.031415914    0            
     15900   0.031415914    0.031415914    0            
     16000   0.031415914    0.031415914    0            
     16100   0.031415914    0.031415914    0            
     16200   0.031415914    0.031415914    0            
     16300   0.031415914    0.031415914    0            
     16400   0.031415914    0.031415914    0            
     16500   0.031415913    0.031415913    0            
     16600   0.031415913    0.031415913    0            
     16700   0.031415913    0.031415913    0            
     16800   0.031415913    0.031415913    0            
     16900   0.031415913    0.031415913    0            
     17000   0.031415913    0.031415913    0            
     17100   0.031415913    0.031415913    0            
     17200   0.031415912    0.031415912    0            
     17300   0.031415912    0.031415912    0            
     17400   0.031415912    0.031415912    0            
     17500   0.031415912    0.031415912    0            
     17600   0.031415912    0.031415912    0            
     17700   0.031415912    0.031415912    0            
     17800   0.031415911    0.031415911    0            
     17900   0.031415911    0.031415911    0            
     18000   0.031415911    0.031415911    0            
     18100   0.031415911    0.031415911    0            
     18200   0.031415911    0.031415911    0            
     18300   0.031415911    0.031415911    0            
     18400   0.031415911    0.031415911    0            
     18500   0.03141591     0.03141591     0            
     18600   0.03141591     0.03141591     0            
     18700   0.03141591     0.03141591     0            
     18800   0.03141591     0.03141591     0            
     18900   0.03141591     0.03141591     0            
     19000   0.03141591     0.03141591     0            
     19100   0.031415909    0.031415909    0            
     19200   0.031415909    0.031415909    0            
     19300   0.031415909    0.031415909    0            
     19400   0.031415909    0.031415909    0            
     19500   0.031415909    0.031415909    0            
     19600   0.031415909    0.031415909    0            
     19700   0.031415908    0.031415908    0            
     19800   0.031415908    0.031415908    0            
     19900   0.031415908    0.031415908    0            
     20000   0.031415908    0.031415908    0            
     20100   0.031415908    0.031415908    0            
     20200   0.031415907    0.031415907    0            
     20300   0.031415907    0.031415907    0            
     20400   0.031415907    0.031415907    0            
     20500   0.031415907    0.031415907    0            
     20600   0.031415907    0.031415907    0            
     20700   0.031415907    0.031415907    0            
     20800   0.031415906    0.031415906    0            
     20900   0.031415906    0.031415906    0            
     21000   0.031415906    0.031415906    0            
     21100   0.031415906    0.031415906    0            
     21200   0.031415906    0.031415906    0            
     21300   0.031415906    0.031415906    0            
     21400   0.031415905    0.031415905    0            
     21500   0.031415905    0.031415905    0            
     21600   0.031415905    0.031415905    0            
     21700   0.031415905    0.031415905    0            
     21800   0.031415905    0.031415905    0            
     21900   0.031415904    0.031415904    0            
     22000   0.031415904    0.031415904    0            
     22100   0.031415904    0.031415904    0            
     22200   0.031415904    0.031415904    0            
     22300   0.031415904    0.031415904    0            
     22400   0.031415903    0.031415903    0            
     22500   0.031415903    0.031415903    0            
     22600   0.031415903    0.031415903    0            
     22700   0.031415903    0.031415903    0            
     22800   0.031415903    0.031415903    0            
     22900   0.031415902    0.031415902    0            
     23000   0.031415902    0.031415902    0            
     23100   0.031415902    0.031415902    0            
     23200   0.031415902    0.031415902    0            
     23300   0.031415902    0.031415902    0            
     23400   0.031415901    0.031415901    0            
     23500   0.031415901    0.031415901    0            
     23600   0.031415901    0.031415901    0            
     23700   0.031415901    0.031415901    0            
     23800   0.031415901    0.031415901    0            
     23900   0.0314159      0.0314159      0            
     24000   0.0314159      0.0314159      0            
     24100   0.0314159      0.0314159      0            
     24200   0.0314159      0.0314159      0            
     24300   0.0314159      0.0314159      0            
     24400   0.031415899    0.031415899    0            
     24500   0.031415899    0.031415899    0            
     24600   0.031415899    0.031415899    0            
     24700   0.031415899    0.031415899    0            
     24800   0.031415899    0.031415899    0            
     24900   0.031415898    0.031415898    0            
     25000   0.031415898    0.031415898    0            
     25100   0.031415898    0.031415898    0            
     25200   0.031415898    0.031415898    0            
     25300   0.031415897    0.031415897    0            
     25400   0.031415897    0.031415897    0            
     25500   0.031415897    0.031415897    0            
     25600   0.031415897    0.031415897    0            
     25700   0.031415897    0.031415897    0            
     25800   0.031415896    0.031415896    0            
     25900   0.031415896    0.031415896    0            
     26000   0.031415896    0.031415896    0            
     26100   0.031415896    0.031415896    0            
     26200   0.031415896    0.031415896    0            
     26300   0.031415895    0.031415895    0            
     26400   0.031415895    0.031415895    0            
     26500   0.031415895    0.031415895    0            
     26600   0.031415895    0.031415895    0            
     26700   0.031415894    0.031415894    0            
     26800   0.031415894    0.031415894    0            
     26900   0.031415894    0.031415894    0            
     27000   0.031415894    0.031415894    0            
     27100   0.031415893    0.031415893    0            
     27200   0.031415893    0.031415893    0            
     27300   0.031415893    0.031415893    0            
     27400   0.031415893    0.031415893    0            
     27500   0.031415893    0.031415893    0            
     27600   0.031415892    0.031415892    0            
     27700   0.031415892    0.031415892    0            
     27800   0.031415892    0.031415892    0            
     27900   0.031415892    0.031415892    0            
     28000   0.031415891    0.031415891    0            
     28100   0.031415891    0.031415891    0            
     28200   0.031415891    0.031415891    0            
     28300   0.031415891    0.031415891    0            
     28400   0.03141589     0.03141589     0            
     28500   0.03141589     0.03141589     0            
     28600   0.03141589     0.03141589     0            
     28700   0.03141589     0.03141589     0            
     28800   0.031415889    0.031415889    0            
     28900   0.031415889    0.031415889    0            
     29000   0.031415889    0.031415889    0            
     29100   0.031415889    0.031415889    0            
     29200   0.031415888    0.031415888    0            
     29300   0.031415888    0.031415888    0            
     29400   0.031415888    0.031415888    0            
     29500   0.031415888    0.031415888    0            
     29600   0.031415887    0.031415887    0            
     29700   0.031415887    0.031415887    0            
     29800   0.031415887    0.031415887    0            
     29900   0.031415887    0.031415887    0            
     30000   0.031415886    0.031415886    0            
     30100   0.031415886    0.031415886    0            
     30200   0.031415886    0.031415886    0            
     30300   0.031415886    0.031415886    0            
     30400   0.031415885    0.031415885    0            
     30500   0.031415885    0.031415885    0            
     30600   0.031415885    0.031415885    0            
     30700   0.031415885    0.031415885    0            
     30800   0.031415884    0.031415884    0            
     30900   0.031415884    0.031415884    0            
     31000   0.031415884    0.031415884    0            
     31100   0.031415883    0.031415883    0            
     31200   0.031415883    0.031415883    0            
     31300   0.031415883    0.031415883    0            
     31400   0.031415883    0.031415883    0            
     31500   0.031415882    0.031415882    0            
     31600   0.031415882    0.031415882    0            
     31700   0.031415882    0.031415882    0            
     31800   0.031415882    0.031415882    0            
     31900   0.031415881    0.031415881    0            
     32000   0.031415881    0.031415881    0            
     32100   0.031415881    0.031415881    0            
     32200   0.03141588     0.03141588     0            
     32300   0.03141588     0.03141588     0            
     32400   0.03141588     0.03141588     0            
     32500   0.03141588     0.03141588     0            
     32600   0.031415879    0.031415879    0            
     32700   0.031415879    0.031415879    0            
     32800   0.031415879    0.031415879    0            
     32900   0.031415879    0.031415879    0            
     33000   0.031415878    0.031415878    0            
     33100   0.031415878    0.031415878    0            
     33200   0.031415878    0.031415878    0            
     33300   0.031415877    0.031415877    0            
     33400   0.031415877    0.031415877    0            
     33500   0.031415877    0.031415877    0            
     33600   0.031415877    0.031415877    0            
     33700   0.031415876    0.031415876    0            
     33800   0.031415876    0.031415876    0            
     33900   0.031415876    0.031415876    0            
     34000   0.031415875    0.031415875    0            
     34100   0.031415875    0.031415875    0            
     34200   0.031415875    0.031415875    0            
     34300   0.031415874    0.031415874    0            
     34400   0.031415874    0.031415874    0            
     34500   0.031415874    0.031415874    0            
     34600   0.031415874    0.031415874    0            
     34700   0.031415873    0.031415873    0            
     34800   0.031415873    0.031415873    0            
     34900   0.031415873    0.031415873    0            
     35000   0.031415872    0.031415872    0            
     35100   0.031415872    0.031415872    0            
     35200   0.031415872    0.031415872    0            
     35300   0.031415871    0.031415871    0            
     35400   0.031415871    0.031415871    0            
     35500   0.031415871    0.031415871    0            
     35600   0.031415871    0.031415871    0            
     35700   0.03141587     0.03141587     0            
     35800   0.03141587     0.03141587     0            
     35900   0.03141587     0.03141587     0            
     36000   0.031415869    0.031415869    0            
     36100   0.031415869    0.031415869    0            
     36200   0.031415869    0.031415869    0            
     36300   0.031415868    0.031415868    0            
     36400   0.031415868    0.031415868    0            
     36500   0.031415868    0.031415868    0            
     36600   0.031415867    0.031415867    0            
     36700   0.031415867    0.031415867    0            
     36800   0.031415867    0.031415867    0            
     36900   0.031415867    0.031415867    0            
     37000   0.031415866    0.031415866    0            
     37100   0.031415866    0.031415866    0            
     37200   0.031415866    0.031415866    0            
     37300   0.031415865    0.031415865    0            
     37400   0.031415865    0.031415865    0            
     37500   0.031415865    0.031415865    0            
     37600   0.031415864    0.031415864    0            
     37700   0.031415864    0.031415864    0            
     37800   0.031415864    0.031415864    0            
     37900   0.031415863    0.031415863    0            
     38000   0.031415863    0.031415863    0            
     38100   0.031415863    0.031415863    0            
     38200   0.031415862    0.031415862    0            
     38300   0.031415862    0.031415862    0            
     38400   0.031415862    0.031415862    0            
     38500   0.031415861    0.031415861    0            
     38600   0.031415861    0.031415861    0            
     38700   0.031415861    0.031415861    0            
     38800   0.03141586     0.03141586     0            
     38900   0.03141586     0.03141586     0            
     39000   0.03141586     0.03141586     0            
     39100   0.031415859    0.031415859    0            
     39200   0.031415859    0.031415859    0            
     39300   0.031415859    0.031415859    0            
     39400   0.031415858    0.031415858    0            
     39500   0.031415858    0.031415858    0            
     39600   0.031415858    0.031415858    0            
     39700   0.031415857    0.031415857    0            
     39800   0.031415857    0.031415857    0            
     39900   0.031415857    0.031415857    0            
     40000   0.031415856    0.031415856    0            
     40100   0.031415856    0.031415856    0            
     40200   0.031415855    0.031415855    0            
     40300   0.031415855    0.031415855    0            
     40400   0.031415855    0.031415855    0            
     40500   0.031415854    0.031415854    0            
     40600   0.031415854    0.031415854    0            
     40700   0.031415854    0.031415854    0            
     40800   0.031415853    0.031415853    0            
     40900   0.031415853    0.031415853    0            
     41000   0.031415853    0.031415853    0            
     41100   0.031415852    0.031415852    0            
     41200   0.031415852    0.031415852    0            
     41300   0.031415852    0.031415852    0            
     41400   0.031415851    0.031415851    0            
     41500   0.031415851    0.031415851    0            
     41600   0.03141585     0.03141585     0            
     41700   0.03141585     0.03141585     0            
     41800   0.03141585     0.03141585     0            
     41900   0.031415849    0.031415849    0            
     42000   0.031415849    0.031415849    0            
     42100   0.031415849    0.031415849    0            
     42200   0.031415848    0.031415848    0            
     42300   0.031415848    0.031415848    0            
     42400   0.031415848    0.031415848    0            
     42500   0.031415847    0.031415847    0            
     42600   0.031415847    0.031415847    0            
     42700   0.031415846    0.031415846    0            
     42800   0.031415846    0.031415846    0            
     42900   0.031415846    0.031415846    0            
     43000   0.031415845    0.031415845    0            
     43100   0.031415845    0.031415845    0            
     43200   0.031415845    0.031415845    0            
     43300   0.031415844    0.031415844    0            
     43400   0.031415844    0.031415844    0            
     43500   0.031415843    0.031415843    0            
     43600   0.031415843    0.031415843    0            
     43700   0.031415843    0.031415843    0            
     43800   0.031415842    0.031415842    0            
     43900   0.031415842    0.031415842    0            
     44000   0.031415842    0.031415842    0            
     44100   0.031415841    0.031415841    0            
     44200   0.031415841    0.031415841    0            
     44300   0.03141584     0.03141584     0            
     44400   0.03141584     0.03141584     0            
     44500   0.03141584     0.03141584     0            
     44600   0.031415839    0.031415839    0            
     44700   0.031415839    0.031415839    0            
     44800   0.031415838    0.031415838    0            
     44900   0.031415838    0.031415838    0            
     45000   0.031415838    0.031415838    0            
     45100   0.031415837    0.031415837    0            
     45200   0.031415837    0.031415837    0            
     45300   0.031415836    0.031415836    0            
     45400   0.031415836    0.031415836    0            
     45500   0.031415836    0.031415836    0            
     45600   0.031415835    0.031415835    0            
     45700   0.031415835    0.031415835    0            
     45800   0.031415834    0.031415834    0            
     45900   0.031415834    0.031415834    0            
     46000   0.031415834    0.031415834    0            
     46100   0.031415833    0.031415833    0            
     46200   0.031415833    0.031415833    0            
     46300   0.031415832    0.031415832    0            
     46400   0.031415832    0.031415832    0            
     46500   0.031415832    0.031415832    0            
     46600   0.031415831    0.031415831    0            
     46700   0.031415831    0.031415831    0            
     46800   0.03141583     0.03141583     0            
     46900   0.03141583     0.03141583     0            
     47000   0.031415829    0.031415829    0            
     47100   0.031415829    0.031415829    0            
     47200   0.031415829    0.031415829    0            
     47300   0.031415828    0.031415828    0            
     47400   0.031415828    0.031415828    0            
     47500   0.031415827    0.031415827    0            
     47600   0.031415827    0.031415827    0            
     47700   0.031415827    0.031415827    0            
     47800   0.031415826    0.031415826    0            
     47900   0.031415826    0.031415826    0            
     48000   0.031415825    0.031415825    0            
     48100   0.031415825    0.031415825    0            
     48200   0.031415824    0.031415824    0            
     48300   0.031415824    0.031415824    0            
     48400   0.031415824    0.031415824    0            
     48500   0.031415823    0.031415823    0            
     48600   0.031415823    0.031415823    0            
     48700   0.031415822    0.031415822    0            
     48800   0.031415822    0.031415822    0            
     48900   0.031415821    0.031415821    0            
     49000   0.031415821    0.031415821    0            
     49100   0.031415821    0.031415821    0            
     49200   0.03141582     0.03141582     0            
     49300   0.03141582     0.03141582     0            
     49400   0.031415819    0.031415819    0            
     49500   0.031415819    0.031415819    0            
     49600   0.031415818    0.031415818    0            
     49700   0.031415818    0.031415818    0            
     49800   0.031415817    0.031415817    0            
     49900   0.031415817    0.031415817    0            
     50000   0.031415817    0.031415817    0            
     50100   0.031415816    0.031415816    0            
     50200   0.031415816    0.031415816    0            
     50300   0.031415815    0.031415815    0            
     50400   0.031415815    0.031415815    0            
     50500   0.031415814    0.031415814    0            
     50600   0.031415814    0.031415814    0            
     50700   0.031415813    0.031415813    0            
     50800   0.031415813    0.031415813    0            
     50900   0.031415813    0.031415813    0            
     51000   0.031415812    0.031415812    0            
     51100   0.031415812    0.031415812    0            
     51200   0.031415811    0.031415811    0            
     51300   0.031415811    0.031415811    0            
     51400   0.03141581     0.03141581     0            
     51500   0.03141581     0.03141581     0            
     51600   0.031415809    0.031415809    0            
     51700   0.031415809    0.031415809    0            
     51800   0.031415808    0.031415808    0            
     51900   0.031415808    0.031415808    0            
     52000   0.031415807    0.031415807    0            
     52100   0.031415807    0.031415807    0            
     52200   0.031415807    0.031415807    0            
     52300   0.031415806    0.031415806    0            
     52400   0.031415806    0.031415806    0            
     52500   0.031415805    0.031415805    0            
     52600   0.031415805    0.031415805    0            
     52700   0.031415804    0.031415804    0            
     52800   0.031415804    0.031415804    0            
     52900   0.031415803    0.031415803    0            
     53000   0.031415803    0.031415803    0            
     53100   0.031415802    0.031415802    0            
     53200   0.031415802    0.031415802    0            
     53300   0.031415801    0.031415801    0            
     53400   0.031415801    0.031415801    0            
     53500   0.0314158      0.0314158      0            
     53600   0.0314158      0.0314158      0            
     53700   0.031415799    0.031415799    0            
     53800   0.031415799    0.031415799    0            
     53900   0.031415798    0.031415798    0            
     54000   0.031415798    0.031415798    0            
     54100   0.031415797    0.031415797    0            
     54200   0.031415797    0.031415797    0            
     54300   0.031415797    0.031415797    0            
     54400   0.031415796    0.031415796    0            
     54500   0.031415796    0.031415796    0            
     54600   0.031415795    0.031415795    0            
     54700   0.031415795    0.031415795    0            
     54800   0.031415794    0.031415794    0            
     54900   0.031415794    0.031415794    0            
     55000   0.031415793    0.031415793    0            
     55100   0.031415793    0.031415793    0            
     55200   0.031415792    0.031415792    0            
     55300   0.031415792    0.031415792    0            
     55400   0.031415791    0.031415791    0            
     55500   0.031415791    0.031415791    0            
     55600   0.03141579     0.03141579     0            
     55700   0.03141579     0.03141579     0            
     55800   0.031415789    0.031415789    0            
     55900   0.031415789    0.031415789    0            
     56000   0.031415788    0.031415788    0            
     56100   0.031415788    0.031415788    0            
     56200   0.031415787    0.031415787    0            
     56300   0.031415787    0.031415787    0            
     56400   0.031415786    0.031415786    0            
     56500   0.031415786    0.031415786    0            
     56600   0.031415785    0.031415785    0            
     56700   0.031415784    0.031415784    0            
     56800   0.031415784    0.031415784    0            
     56900   0.031415783    0.031415783    0            
     57000   0.031415783    0.031415783    0            
     57100   0.031415782    0.031415782    0            
     57200   0.031415782    0.031415782    0            
     57300   0.031415781    0.031415781    0            
     57400   0.031415781    0.031415781    0            
     57500   0.03141578     0.03141578     0            
     57600   0.03141578     0.03141578     0            
     57700   0.031415779    0.031415779    0            
     57800   0.031415779    0.031415779    0            
     57900   0.031415778    0.031415778    0            
     58000   0.031415778    0.031415778    0            
     58100   0.031415777    0.031415777    0            
     58200   0.031415777    0.031415777    0            
     58300   0.031415776    0.031415776    0            
     58400   0.031415776    0.031415776    0            
     58500   0.031415775    0.031415775    0            
     58600   0.031415775    0.031415775    0            
     58700   0.031415774    0.031415774    0            
     58800   0.031415773    0.031415773    0            
     58900   0.031415773    0.031415773    0            
     59000   0.031415772    0.031415772    0            
     59100   0.031415772    0.031415772    0            
     59200   0.031415771    0.031415771    0            
     59300   0.031415771    0.031415771    0            
     59400   0.03141577     0.03141577     0            
     59500   0.03141577     0.03141577     0            
     59600   0.031415769    0.031415769    0            
     59700   0.031415769    0.031415769    0            
     59800   0.031415768    0.031415768    0            
     59900   0.031415767    0.031415767    0            
     60000   0.031415767    0.031415767    0            
     60100   0.031415766    0.031415766    0            
     60200   0.031415766    0.031415766    0            
     60300   0.031415765    0.031415765    0            
     60400   0.031415765    0.031415765    0            
     60500   0.031415764    0.031415764    0            
     60600   0.031415764    0.031415764    0            
     60700   0.031415763    0.031415763    0            
     60800   0.031415763    0.031415763    0            
     60900   0.031415762    0.031415762    0            
     61000   0.031415761    0.031415761    0            
     61100   0.031415761    0.031415761    0            
     61200   0.03141576     0.03141576     0            
     61300   0.03141576     0.03141576     0            
     61400   0.031415759    0.031415759    0            
     61500   0.031415759    0.031415759    0            
     61600   0.031415758    0.031415758    0            
     61700   0.031415757    0.031415757    0            
     61800   0.031415757    0.031415757    0            
     61900   0.031415756    0.031415756    0            
     62000   0.031415756    0.031415756    0            
     62100   0.031415755    0.031415755    0            
     62200   0.031415755    0.031415755    0            
     62300   0.031415754    0.031415754    0            
     62400   0.031415753    0.031415753    0            
     62500   0.031415753    0.031415753    0            
     62600   0.031415752    0.031415752    0            
     62700   0.031415752    0.031415752    0            
     62800   0.031415751    0.031415751    0            
     62900   0.031415751    0.031415751    0            
     63000   0.03141575     0.03141575     0            
     63100   0.031415749    0.031415749    0            
     63200   0.031415749    0.031415749    0            
     63300   0.031415748    0.031415748    0            
     63400   0.031415748    0.031415748    0            
     63500   0.031415747    0.031415747    0            
     63600   0.031415746    0.031415746    0            
     63700   0.031415746    0.031415746    0            
     63800   0.031415745    0.031415745    0            
     63900   0.031415745    0.031415745    0            
     64000   0.031415744    0.031415744    0            
     64100   0.031415744    0.031415744    0            
     64200   0.031415743    0.031415743    0            
     64300   0.031415742    0.031415742    0            
     64400   0.031415742    0.031415742    0            
     64500   0.031415741    0.031415741    0            
     64600   0.031415741    0.031415741    0            
     64700   0.03141574     0.03141574     0            
     64800   0.031415739    0.031415739    0            
     64900   0.031415739    0.031415739    0            
     65000   0.031415738    0.031415738    0            
     65100   0.031415738    0.031415738    0            
     65200   0.031415737    0.031415737    0            
     65300   0.031415736    0.031415736    0            
     65400   0.031415736    0.031415736    0            
     65500   0.031415735    0.031415735    0            
     65600   0.031415734    0.031415734    0            
     65700   0.031415734    0.031415734    0            
     65800   0.031415733    0.031415733    0            
     65900   0.031415733    0.031415733    0            
     66000   0.031415732    0.031415732    0            
     66100   0.031415731    0.031415731    0            
     66200   0.031415731    0.031415731    0            
     66300   0.03141573     0.03141573     0            
     66400   0.03141573     0.03141573     0            
     66500   0.031415729    0.031415729    0            
     66600   0.031415728    0.031415728    0            
     66700   0.031415728    0.031415728    0            
     66800   0.031415727    0.031415727    0            
     66900   0.031415726    0.031415726    0            
     67000   0.031415726    0.031415726    0            
     67100   0.031415725    0.031415725    0            
     67200   0.031415725    0.031415725    0            
     67300   0.031415724    0.031415724    0            
     67400   0.031415723    0.031415723    0            
     67500   0.031415723    0.031415723    0            
     67600   0.031415722    0.031415722    0            
     67700   0.031415721    0.031415721    0            
     67800   0.031415721    0.031415721    0            
     67900   0.03141572     0.03141572     0            
     68000   0.03141572     0.03141572     0            
     68100   0.031415719    0.031415719    0            
     68200   0.031415718    0.031415718    0            
     68300   0.031415718    0.031415718    0            
     68400   0.031415717    0.031415717    0            
     68500   0.031415716    0.031415716    0            
     68600   0.031415716    0.031415716    0            
     68700   0.031415715    0.031415715    0            
     68800   0.031415714    0.031415714    0            
     68900   0.031415714    0.031415714    0            
     69000   0.031415713    0.031415713    0            
     69100   0.031415712    0.031415712    0            
     69200   0.031415712    0.031415712    0            
     69300   0.031415711    0.031415711    0            
     69400   0.031415711    0.031415711    0            
     69500   0.03141571     0.03141571     0            
     69600   0.031415709    0.031415709    0            
     69700   0.031415709    0.031415709    0            
     69800   0.031415708    0.031415708    0            
     69900   0.031415707    0.031415707    0            
     70000   0.031415707    0.031415707    0            
     70100   0.031415706    0.031415706    0            
     70200   0.031415705    0.031415705    0            
     70300   0.031415705    0.031415705    0            
     70400   0.031415704    0.031415704    0            
     70500   0.031415703    0.031415703    0            
     70600   0.031415703    0.031415703    0            
     70700   0.031415702    0.031415702    0            
     70800   0.031415701    0.031415701    0            
     70900   0.031415701    0.031415701    0            
     71000   0.0314157      0.0314157      0            
     71100   0.031415699    0.031415699    0            
     71200   0.031415699    0.031415699    0            
     71300   0.031415698    0.031415698    0            
     71400   0.031415697    0.031415697    0            
     71500   0.031415697    0.031415697    0            
     71600   0.031415696    0.031415696    0            
     71700   0.031415695    0.031415695    0            
     71800   0.031415695    0.031415695    0            
     71900   0.031415694    0.031415694    0            
     72000   0.031415693    0.031415693    0            
     72100   0.031415692    0.031415692    0            
     72200   0.031415692    0.031415692    0            
     72300   0.031415691    0.031415691    0            
     72400   0.03141569     0.03141569     0            
     72500   0.03141569     0.03141569     0            
     72600   0.031415689    0.031415689    0            
     72700   0.031415688    0.031415688    0            
     72800   0.031415688    0.031415688    0            
     72900   0.031415687    0.031415687    0            
     73000   0.031415686    0.031415686    0            
     73100   0.031415686    0.031415686    0            
     73200   0.031415685    0.031415685    0            
     73300   0.031415684    0.031415684    0            
     73400   0.031415683    0.031415683    0            
     73500   0.031415683    0.031415683    0            
     73600   0.031415682    0.031415682    0            
     73700   0.031415681    0.031415681    0            
     73800   0.031415681    0.031415681    0            
     73900   0.03141568     0.03141568     0            
     74000   0.031415679    0.031415679    0            
     74100   0.031415679    0.031415679    0            
     74200   0.031415678    0.031415678    0            
     74300   0.031415677    0.031415677    0            
     74400   0.031415676    0.031415676    0            
     74500   0.031415676    0.031415676    0            
     74600   0.031415675    0.031415675    0            
     74700   0.031415674    0.031415674    0            
     74800   0.031415674    0.031415674    0            
     74900   0.031415673    0.031415673    0            
     75000   0.031415672    0.031415672    0            
     75100   0.031415671    0.031415671    0            
     75200   0.031415671    0.031415671    0            
     75300   0.03141567     0.03141567     0            
     75400   0.031415669    0.031415669    0            
     75500   0.031415669    0.031415669    0            
     75600   0.031415668    0.031415668    0            
     75700   0.031415667    0.031415667    0            
     75800   0.031415666    0.031415666    0            
     75900   0.031415666    0.031415666    0            
     76000   0.031415665    0.031415665    0            
     76100   0.031415664    0.031415664    0            
     76200   0.031415663    0.031415663    0            
     76300   0.031415663    0.031415663    0            
     76400   0.031415662    0.031415662    0            
     76500   0.031415661    0.031415661    0            
     76600   0.031415661    0.031415661    0            
     76700   0.03141566     0.03141566     0            
     76800   0.031415659    0.031415659    0            
     76900   0.031415658    0.031415658    0            
     77000   0.031415658    0.031415658    0            
     77100   0.031415657    0.031415657    0            
     77200   0.031415656    0.031415656    0            
     77300   0.031415655    0.031415655    0            
     77400   0.031415655    0.031415655    0            
     77500   0.031415654    0.031415654    0            
     77600   0.031415653    0.031415653    0            
     77700   0.031415652    0.031415652    0            
     77800   0.031415652    0.031415652    0            
     77900   0.031415651    0.031415651    0            
     78000   0.03141565     0.03141565     0            
     78100   0.031415649    0.031415649    0            
     78200   0.031415649    0.031415649    0            
     78300   0.031415648    0.031415648    0            
     78400   0.031415647    0.031415647    0            
     78500   0.031415646    0.031415646    0            
     78600   0.031415646    0.031415646    0            
     78700   0.031415645    0.031415645    0            
     78800   0.031415644    0.031415644    0            
     78900   0.031415643    0.031415643    0            
     79000   0.031415643    0.031415643    0            
     79100   0.031415642    0.031415642    0            
     79200   0.031415641    0.031415641    0            
     79300   0.03141564     0.03141564     0            
     79400   0.031415639    0.031415639    0            
     79500   0.031415639    0.031415639    0            
     79600   0.031415638    0.031415638    0            
     79700   0.031415637    0.031415637    0            
     79800   0.031415636    0.031415636    0            
     79900   0.031415636    0.031415636    0            
     80000   0.031415635    0.031415635    0            
     80100   0.031415634    0.031415634    0            
     80200   0.031415633    0.031415633    0            
     80300   0.031415633    0.031415633    0            
     80400   0.031415632    0.031415632    0            
     80500   0.031415631    0.031415631    0            
     80600   0.03141563     0.03141563     0            
     80700   0.031415629    0.031415629    0            
     80800   0.031415629    0.031415629    0            
     80900   0.031415628    0.031415628    0            
     81000   0.031415627    0.031415627    0            
     81100   0.031415626    0.031415626    0            
     81200   0.031415625    0.031415625    0            
     81300   0.031415625    0.031415625    0            
     81400   0.031415624    0.031415624    0            
     81500   0.031415623    0.031415623    0            
     81600   0.031415622    0.031415622    0            
     81700   0.031415621    0.031415621    0            
     81800   0.031415621    0.031415621    0            
     81900   0.03141562     0.03141562     0            
     82000   0.031415619    0.031415619    0            
     82100   0.031415618    0.031415618    0            
     82200   0.031415618    0.031415618    0            
     82300   0.031415617    0.031415617    0            
     82400   0.031415616    0.031415616    0            
     82500   0.031415615    0.031415615    0            
     82600   0.031415614    0.031415614    0            
     82700   0.031415613    0.031415613    0            
     82800   0.031415613    0.031415613    0            
     82900   0.031415612    0.031415612    0            
     83000   0.031415611    0.031415611    0            
     83100   0.03141561     0.03141561     0            
     83200   0.031415609    0.031415609    0            
     83300   0.031415609    0.031415609    0            
     83400   0.031415608    0.031415608    0            
     83500   0.031415607    0.031415607    0            
     83600   0.031415606    0.031415606    0            
     83700   0.031415605    0.031415605    0            
     83800   0.031415605    0.031415605    0            
     83900   0.031415604    0.031415604    0            
     84000   0.031415603    0.031415603    0            
     84100   0.031415602    0.031415602    0            
     84200   0.031415601    0.031415601    0            
     84300   0.0314156      0.0314156      0            
     84400   0.0314156      0.0314156      0            
     84500   0.031415599    0.031415599    0            
     84600   0.031415598    0.031415598    0            
     84700   0.031415597    0.031415597    0            
     84800   0.031415596    0.031415596    0            
     84900   0.031415595    0.031415595    0            
     85000   0.031415595    0.031415595    0            
     85100   0.031415594    0.031415594    0            
     85200   0.031415593    0.031415593    0            
     85300   0.031415592    0.031415592    0            
     85400   0.031415591    0.031415591    0            
     85500   0.03141559     0.03141559     0            
     85600   0.03141559     0.03141559     0            
     85700   0.031415589    0.031415589    0            
     85800   0.031415588    0.031415588    0            
     85900   0.031415587    0.031415587    0            
     86000   0.031415586    0.031415586    0            
     86100   0.031415585    0.031415585    0            
     86200   0.031415584    0.031415584    0            
     86300   0.031415584    0.031415584    0            
     86400   0.031415583    0.031415583    0            
     86500   0.031415582    0.031415582    0            
     86600   0.031415581    0.031415581    0            
     86700   0.03141558     0.03141558     0            
     86800   0.031415579    0.031415579    0            
     86900   0.031415578    0.031415578    0            
     87000   0.031415578    0.031415578    0            
     87100   0.031415577    0.031415577    0            
     87200   0.031415576    0.031415576    0            
     87300   0.031415575    0.031415575    0            
     87400   0.031415574    0.031415574    0            
     87500   0.031415573    0.031415573    0            
     87600   0.031415572    0.031415572    0            
     87700   0.031415572    0.031415572    0            
     87800   0.031415571    0.031415571    0            
     87900   0.03141557     0.03141557     0            
     88000   0.031415569    0.031415569    0            
     88100   0.031415568    0.031415568    0            
     88200   0.031415567    0.031415567    0            
     88300   0.031415566    0.031415566    0            
     88400   0.031415565    0.031415565    0            
     88500   0.031415565    0.031415565    0            
     88600   0.031415564    0.031415564    0            
     88700   0.031415563    0.031415563    0            
     88800   0.031415562    0.031415562    0            
     88900   0.031415561    0.031415561    0            
     89000   0.03141556     0.03141556     0            
     89100   0.031415559    0.031415559    0            
     89200   0.031415558    0.031415558    0            
     89300   0.031415557    0.031415557    0            
     89400   0.031415557    0.031415557    0            
     89500   0.031415556    0.031415556    0            
     89600   0.031415555    0.031415555    0            
     89700   0.031415554    0.031415554    0            
     89800   0.031415553    0.031415553    0            
     89900   0.031415552    0.031415552    0            
     90000   0.031415551    0.031415551    0            
     90100   0.03141555     0.03141555     0            
     90200   0.031415549    0.031415549    0            
     90300   0.031415549    0.031415549    0            
     90400   0.031415548    0.031415548    0            
     90500   0.031415547    0.031415547    0            
     90600   0.031415546    0.031415546    0            
     90700   0.031415545    0.031415545    0            
     90800   0.031415544    0.031415544    0            
     90900   0.031415543    0.031415543    0            
     91000   0.031415542    0.031415542    0            
     91100   0.031415541    0.031415541    0            
     91200   0.03141554     0.03141554     0            
     91300   0.031415539    0.031415539    0            
     91400   0.031415539    0.031415539    0            
     91500   0.031415538    0.031415538    0            
     91600   0.031415537    0.031415537    0            
     91700   0.031415536    0.031415536    0            
     91800   0.031415535    0.031415535    0            
     91900   0.031415534    0.031415534    0            
     92000   0.031415533    0.031415533    0            
     92100   0.031415532    0.031415532    0            
     92200   0.031415531    0.031415531    0            
     92300   0.03141553     0.03141553     0            
     92400   0.031415529    0.031415529    0            
     92500   0.031415528    0.031415528    0            
     92600   0.031415527    0.031415527    0            
     92700   0.031415527    0.031415527    0            
     92800   0.031415526    0.031415526    0            
     92900   0.031415525    0.031415525    0            
     93000   0.031415524    0.031415524    0            
     93100   0.031415523    0.031415523    0            
     93200   0.031415522    0.031415522    0            
     93300   0.031415521    0.031415521    0            
     93400   0.03141552     0.03141552     0            
     93500   0.031415519    0.031415519    0            
     93600   0.031415518    0.031415518    0            
     93700   0.031415517    0.031415517    0            
     93800   0.031415516    0.031415516    0            
     93900   0.031415515    0.031415515    0            
     94000   0.031415514    0.031415514    0            
     94100   0.031415513    0.031415513    0            
     94200   0.031415512    0.031415512    0            
     94300   0.031415511    0.031415511    0            
     94400   0.03141551     0.03141551     0            
     94500   0.03141551     0.03141551     0            
     94600   0.031415509    0.031415509    0            
     94700   0.031415508    0.031415508    0            
     94800   0.031415507    0.031415507    0            
     94900   0.031415506    0.031415506    0            
     95000   0.031415505    0.031415505    0            
     95100   0.031415504    0.031415504    0            
     95200   0.031415503    0.031415503    0            
     95300   0.031415502    0.031415502    0            
     95400   0.031415501    0.031415501    0            
     95500   0.0314155      0.0314155      0            
     95600   0.031415499    0.031415499    0            
     95700   0.031415498    0.031415498    0            
     95800   0.031415497    0.031415497    0            
     95900   0.031415496    0.031415496    0            
     96000   0.031415495    0.031415495    0            
     96100   0.031415494    0.031415494    0            
     96200   0.031415493    0.031415493    0            
     96300   0.031415492    0.031415492    0            
     96400   0.031415491    0.031415491    0            
     96500   0.03141549     0.03141549     0            
     96600   0.031415489    0.031415489    0            
     96700   0.031415488    0.031415488    0            
     96800   0.031415487    0.031415487    0            
     96900   0.031415486    0.031415486    0            
     97000   0.031415485    0.031415485    0            
     97100   0.031415484    0.031415484    0            
     97200   0.031415483    0.031415483    0            
     97300   0.031415482    0.031415482    0            
     97400   0.031415481    0.031415481    0            
     97500   0.03141548     0.03141548     0            
     97600   0.031415479    0.031415479    0            
     97700   0.031415478    0.031415478    0            
     97800   0.031415477    0.031415477    0            
     97900   0.031415476    0.031415476    0            
     98000   0.031415475    0.031415475    0            
     98100   0.031415474    0.031415474    0            
     98200   0.031415473    0.031415473    0            
     98300   0.031415472    0.031415472    0            
     98400   0.031415471    0.031415471    0            
     98500   0.03141547     0.03141547     0            
     98600   0.031415469    0.031415469    0            
     98700   0.031415468    0.031415468    0            
     98800   0.031415467    0.031415467    0            
     98900   0.031415466    0.031415466    0            
     99000   0.031415465    0.031415465    0            
     99100   0.031415464    0.031415464    0            
     99200   0.031415463    0.031415463    0            
     99300   0.031415462    0.031415462    0            
     99400   0.031415461    0.031415461    0            
     99500   0.03141546     0.03141546     0            
     99600   0.031415459    0.031415459    0            
     99700   0.031415458    0.031415458    0            
     99800   0.031415457    0.031415457    0            
     99900   0.031415456    0.031415456    0            
    100000   0.031415455    0.031415455    0            
    100100   0.031415454    0.031415454    0            
    100200   0.031415453    0.031415453    0            
    100300   0.031415452    0.031415452    0            
    100400   0.031415451    0.031415451    0            
    100500   0.03141545     0.03141545     0            
    100600   0.031415449    0.031415449    0            
    100700   0.031415448    0.031415448    0            
    100800   0.031415447    0.031415447    0            
    100900   0.031415446    0.031415446    0            
    101000   0.031415445    0.031415445    0            
    101100   0.031415444    0.031415444    0            
    101200   0.031415443    0.031415443    0            
    101300   0.031415442    0.031415442    0            
    101400   0.031415441    0.031415441    0            
    101500   0.03141544     0.03141544     0            
    101600   0.031415438    0.031415438    0            
    101700   0.031415437    0.031415437    0            
    101800   0.031415436    0.031415436    0            
    101900   0.031415435    0.031415435    0            
    102000   0.031415434    0.031415434    0            
    102100   0.031415433    0.031415433    0            
    102200   0.031415432    0.031415432    0            
    102300   0.031415431    0.031415431    0            
    102400   0.03141543     0.03141543     0            
    102500   0.031415429    0.031415429    0            
    102600   0.031415428    0.031415428    0            
    102700   0.031415427    0.031415427    0            
    102800   0.031415426    0.031415426    0            
    102900   0.031415425    0.031415425    0            
    103000   0.031415424    0.031415424    0            
    103100   0.031415423    0.031415423    0            
    103200   0.031415422    0.031415422    0            
    103300   0.03141542     0.03141542     0            
    103400   0.031415419    0.031415419    0            
    103500   0.031415418    0.031415418    0            
    103600   0.031415417    0.031415417    0            
    103700   0.031415416    0.031415416    0            
    103800   0.031415415    0.031415415    0            
    103900   0.031415414    0.031415414    0            
    104000   0.031415413    0.031415413    0            
    104100   0.031415412    0.031415412    0            
    104200   0.031415411    0.031415411    0            
    104300   0.03141541     0.03141541     0            
    104400   0.031415409    0.031415409    0            
    104500   0.031415408    0.031415408    0            
    104600   0.031415406    0.031415406    0            
    104700   0.031415405    0.031415405    0            
    104800   0.031415404    0.031415404    0            
    104900   0.031415403    0.031415403    0            
    105000   0.031415402    0.031415402    0            
    105100   0.031415401    0.031415401    0            
    105200   0.0314154      0.0314154      0            
    105300   0.031415399    0.031415399    0            
    105400   0.031415398    0.031415398    0            
    105500   0.031415397    0.031415397    0            
    105600   0.031415396    0.031415396    0            
    105700   0.031415394    0.031415394    0            
    105800   0.031415393    0.031415393    0            
    105900   0.031415392    0.031415392    0            
    106000   0.031415391    0.031415391    0            
    106100   0.03141539     0.03141539     0            
    106200   0.031415389    0.031415389    0            
    106300   0.031415388    0.031415388    0            
    106400   0.031415387    0.031415387    0            
    106500   0.031415386    0.031415386    0            
    106600   0.031415384    0.031415384    0            
    106700   0.031415383    0.031415383    0            
    106800   0.031415382    0.031415382    0            
    106900   0.031415381    0.031415381    0            
    107000   0.03141538     0.03141538     0            
    107100   0.031415379    0.031415379    0            
    107200   0.031415378    0.031415378    0            
    107300   0.031415377    0.031415377    0            
    107400   0.031415376    0.031415376    0            
    107500   0.031415374    0.031415374    0            
    107600   0.031415373    0.031415373    0            
    107700   0.031415372    0.031415372    0            
    107800   0.031415371    0.031415371    0            
    107900   0.03141537     0.03141537     0            
    108000   0.031415369    0.031415369    0            
    108100   0.031415368    0.031415368    0            
    108200   0.031415367    0.031415367    0            
    108300   0.031415365    0.031415365    0            
    108400   0.031415364    0.031415364    0            
    108500   0.031415363    0.031415363    0            
    108600   0.031415362    0.031415362    0            
    108700   0.031415361    0.031415361    0            
    108800   0.03141536     0.03141536     0            
    108900   0.031415359    0.031415359    0            
    109000   0.031415357    0.031415357    0            
    109100   0.031415356    0.031415356    0            
    109200   0.031415355    0.031415355    0            
    109300   0.031415354    0.031415354    0            
    109400   0.031415353    0.031415353    0            
    109500   0.031415352    0.031415352    0            
    109600   0.03141535     0.03141535     0            
    109700   0.031415349    0.031415349    0            
    109800   0.031415348    0.031415348    0            
    109900   0.031415347    0.031415347    0            
    110000   0.031415346    0.031415346    0            
    110100   0.031415345    0.031415345    0            
    110200   0.031415344    0.031415344    0            
    110300   0.031415342    0.031415342    0            
    110400   0.031415341    0.031415341    0            
    110500   0.03141534     0.03141534     0            
    110600   0.031415339    0.031415339    0            
    110700   0.031415338    0.031415338    0            
    110800   0.031415337    0.031415337    0            
    110900   0.031415335    0.031415335    0            
    111000   0.031415334    0.031415334    0            
    111100   0.031415333    0.031415333    0            
    111200   0.031415332    0.031415332    0            
    111300   0.031415331    0.031415331    0            
    111400   0.03141533     0.03141533     0            
    111500   0.031415328    0.031415328    0            
    111600   0.031415327    0.031415327    0            
    111700   0.031415326    0.031415326    0            
    111800   0.031415325    0.031415325    0            
    111900   0.031415324    0.031415324    0            
    112000   0.031415322    0.031415322    0            
    112100   0.031415321    0.031415321    0            
    112200   0.03141532     0.03141532     0            
    112300   0.031415319    0.031415319    0            
    112400   0.031415318    0.031415318    0            
    112500   0.031415316    0.031415316    0            
    112600   0.031415315    0.031415315    0            
    112700   0.031415314    0.031415314    0            
    112800   0.031415313    0.031415313    0            
    112900   0.031415312    0.031415312    0            
    113000   0.03141531     0.03141531     0            
    113100   0.031415309    0.031415309    0            
    113200   0.031415308    0.031415308    0            
    113300   0.031415307    0.031415307    0            
    113400   0.031415306    0.031415306    0            
    113500   0.031415304    0.031415304    0            
    113600   0.031415303    0.031415303    0            
    113700   0.031415302    0.031415302    0            
    113800   0.031415301    0.031415301    0            
    113900   0.0314153      0.0314153      0            
    114000   0.031415298    0.031415298    0            
    114100   0.031415297    0.031415297    0            
    114200   0.031415296    0.031415296    0            
    114300   0.031415295    0.031415295    0            
    114400   0.031415294    0.031415294    0            
    114500   0.031415292    0.031415292    0            
    114600   0.031415291    0.031415291    0            
    114700   0.03141529     0.03141529     0            
    114800   0.031415289    0.031415289    0            
    114900   0.031415287    0.031415287    0            
    115000   0.031415286    0.031415286    0            
    115100   0.031415285    0.031415285    0            
    115200   0.031415284    0.031415284    0            
    115300   0.031415283    0.031415283    0            
    115400   0.031415281    0.031415281    0            
    115500   0.03141528     0.03141528     0            
    115600   0.031415279    0.031415279    0            
    115700   0.031415278    0.031415278    0            
    115800   0.031415276    0.031415276    0            
    115900   0.031415275    0.031415275    0            
    116000   0.031415274    0.031415274    0            
    116100   0.031415273    0.031415273    0            
    116200   0.031415271    0.031415271    0            
    116300   0.03141527     0.03141527     0            
    116400   0.031415269    0.031415269    0            
    116500   0.031415268    0.031415268    0            
    116600   0.031415266    0.031415266    0            
    116700   0.031415265    0.031415265    0            
    116800   0.031415264    0.031415264    0            
    116900   0.031415263    0.031415263    0            
    117000   0.031415261    0.031415261    0            
    117100   0.03141526     0.03141526     0            
    117200   0.031415259    0.031415259    0            
    117300   0.031415258    0.031415258    0            
    117400   0.031415256    0.031415256    0            
    117500   0.031415255    0.031415255    0            
    117600   0.031415254    0.031415254    0            
    117700   0.031415253    0.031415253    0            
    117800   0.031415251    0.031415251    0            
    117900   0.03141525     0.03141525     0            
    118000   0.031415249    0.031415249    0            
    118100   0.031415247    0.031415247    0            
    118200   0.031415246    0.031415246    0            
    118300   0.031415245    0.031415245    0            
    118400   0.031415244    0.031415244    0            
    118500   0.031415242    0.031415242    0            
    118600   0.031415241    0.031415241    0            
    118700   0.03141524     0.03141524     0            
    118800   0.031415239    0.031415239    0            
    118900   0.031415237    0.031415237    0            
    119000   0.031415236    0.031415236    0            
    119100   0.031415235    0.031415235    0            
    119200   0.031415233    0.031415233    0            
    119300   0.031415232    0.031415232    0            
    119400   0.031415231    0.031415231    0            
    119500   0.03141523     0.03141523     0            
    119600   0.031415228    0.031415228    0            
    119700   0.031415227    0.031415227    0            
    119800   0.031415226    0.031415226    0            
    119900   0.031415224    0.031415224    0            
    120000   0.031415223    0.031415223    0            
    120100   0.031415222    0.031415222    0            
    120200   0.031415221    0.031415221    0            
    120300   0.031415219    0.031415219    0            
    120400   0.031415218    0.031415218    0            
    120500   0.031415217    0.031415217    0            
    120600   0.031415215    0.031415215    0            
    120700   0.031415214    0.031415214    0            
    120800   0.031415213    0.031415213    0            
    120900   0.031415211    0.031415211    0            
    121000   0.03141521     0.03141521     0            
    121100   0.031415209    0.031415209    0            
    121200   0.031415207    0.031415207    0            
    121300   0.031415206    0.031415206    0            
    121400   0.031415205    0.031415205    0            
    121500   0.031415203    0.031415203    0            
    121600   0.031415202    0.031415202    0            
    121700   0.031415201    0.031415201    0            
    121800   0.0314152      0.0314152      0            
    121900   0.031415198    0.031415198    0            
    122000   0.031415197    0.031415197    0            
    122100   0.031415196    0.031415196    0            
    122200   0.031415194    0.031415194    0            
    122300   0.031415193    0.031415193    0            
    122400   0.031415192    0.031415192    0            
    122500   0.03141519     0.03141519     0            
    122600   0.031415189    0.031415189    0            
    122700   0.031415188    0.031415188    0            
    122800   0.031415186    0.031415186    0            
    122900   0.031415185    0.031415185    0            
    123000   0.031415184    0.031415184    0            
    123100   0.031415182    0.031415182    0            
    123200   0.031415181    0.031415181    0            
    123300   0.03141518     0.03141518     0            
    123400   0.031415178    0.031415178    0            
    123500   0.031415177    0.031415177    0            
    123600   0.031415175    0.031415175    0            
    123700   0.031415174    0.031415174    0            
    123800   0.031415173    0.031415173    0            
    123900   0.031415171    0.031415171    0            
    124000   0.03141517     0.03141517     0            
    124100   0.031415169    0.031415169    0            
    124200   0.031415167    0.031415167    0            
    124300   0.031415166    0.031415166    0            
    124400   0.031415165    0.031415165    0            
    124500   0.031415163    0.031415163    0            
    124600   0.031415162    0.031415162    0            
    124700   0.031415161    0.031415161    0            
    124800   0.031415159    0.031415159    0            
    124900   0.031415158    0.031415158    0            
    125000   0.031415156    0.031415156    0            
    125100   0.031415155    0.031415155    0            
    125200   0.031415154    0.031415154    0            
    125300   0.031415152    0.031415152    0            
    125400   0.031415151    0.031415151    0            
    125500   0.03141515     0.03141515     0            
    125600   0.031415148    0.031415148    0            
    125700   0.031415147    0.031415147    0            
    125800   0.031415145    0.031415145    0            
    125900   0.031415144    0.031415144    0            
    126000   0.031415143    0.031415143    0            
    126100   0.031415141    0.031415141    0            
    126200   0.03141514     0.03141514     0            
    126300   0.031415139    0.031415139    0            
    126400   0.031415137    0.031415137    0            
    126500   0.031415136    0.031415136    0            
    126600   0.031415134    0.031415134    0            
    126700   0.031415133    0.031415133    0            
    126800   0.031415132    0.031415132    0            
    126900   0.03141513     0.03141513     0            
    127000   0.031415129    0.031415129    0            
    127100   0.031415127    0.031415127    0            
    127200   0.031415126    0.031415126    0            
    127300   0.031415125    0.031415125    0            
    127400   0.031415123    0.031415123    0            
    127500   0.031415122    0.031415122    0            
    127600   0.03141512     0.03141512     0            
    127700   0.031415119    0.031415119    0            
    127800   0.031415118    0.031415118    0            
    127900   0.031415116    0.031415116    0            
    128000   0.031415115    0.031415115    0            
    128100   0.031415113    0.031415113    0            
    128200   0.031415112    0.031415112    0            
    128300   0.031415111    0.031415111    0            
    128400   0.031415109    0.031415109    0            
    128500   0.031415108    0.031415108    0            
    128600   0.031415106    0.031415106    0            
    128700   0.031415105    0.031415105    0            
    128800   0.031415103    0.031415103    0            
    128900   0.031415102    0.031415102    0            
    129000   0.031415101    0.031415101    0            
    129100   0.031415099    0.031415099    0            
    129200   0.031415098    0.031415098    0            
    129300   0.031415096    0.031415096    0            
[...]
    167900   0.031414432    0.031414432    0            
    168000   0.03141443     0.03141443     0            
    168100   0.031414428    0.031414428    0            
    168200   0.031414426    0.031414426    0            
    168300   0.031414423    0.031414423    0            
    168400   0.031414421    0.031414421    0            
    168500   0.031414419    0.031414419    0            
    168600   0.031414417    0.031414417    0            
    168700   0.031414415    0.031414415    0            
    168800   0.031414413    0.031414413    0            
    168900   0.031414411    0.031414411    0            
    169000   0.031414409    0.031414409    0            
    169100   0.031414407    0.031414407    0            
    169200   0.031414405    0.031414405    0            
    169300   0.031414403    0.031414403    0            
    169400   0.031414401    0.031414401    0            
    169500   0.031414399    0.031414399    0            
    169600   0.031414397    0.031414397    0            
    169700   0.031414395    0.031414395    0            
    169800   0.031414393    0.031414393    0            
    169900   0.031414391    0.031414391    0            
    170000   0.031414389    0.031414389    0            
    170100   0.031414387    0.031414387    0            
    170200   0.031414385    0.031414385    0            
    170300   0.031414383    0.031414383    0            
    170400   0.03141438     0.03141438     0            
    170500   0.031414378    0.031414378    0            
    170600   0.031414376    0.031414376    0            
    170700   0.031414374    0.031414374    0            
    170800   0.031414372    0.031414372    0            
    170900   0.03141437     0.03141437     0            
    171000   0.031414368    0.031414368    0            
    171100   0.031414366    0.031414366    0            
    171200   0.031414364    0.031414364    0            
    171300   0.031414362    0.031414362    0            
    171400   0.03141436     0.03141436     0            
    171500   0.031414358    0.031414358    0            
    171600   0.031414356    0.031414356    0            
    171700   0.031414353    0.031414353    0            
    171800   0.031414351    0.031414351    0            
    171900   0.031414349    0.031414349    0            
    172000   0.031414347    0.031414347    0            
    172100   0.031414345    0.031414345    0            
    172200   0.031414343    0.031414343    0            
    172300   0.031414341    0.031414341    0            
    172400   0.031414339    0.031414339    0            
    172500   0.031414337    0.031414337    0            
    172600   0.031414335    0.031414335    0            
    172700   0.031414332    0.031414332    0            
    172800   0.03141433     0.03141433     0            
    172900   0.031414328    0.031414328    0            
    173000   0.031414326    0.031414326    0            
    173100   0.031414324    0.031414324    0            
    173200   0.031414322    0.031414322    0            
    173300   0.03141432     0.03141432     0            
    173400   0.031414318    0.031414318    0            
    173500   0.031414316    0.031414316    0            
    173600   0.031414313    0.031414313    0            
    173700   0.031414311    0.031414311    0            
    173800   0.031414309    0.031414309    0            
    173900   0.031414307    0.031414307    0            
    174000   0.031414305    0.031414305    0            
    174100   0.031414303    0.031414303    0            
    174200   0.031414301    0.031414301    0            
    174300   0.031414299    0.031414299    0            
    174400   0.031414296    0.031414296    0            
    174500   0.031414294    0.031414294    0            
    174600   0.031414292    0.031414292    0            
    174700   0.03141429     0.03141429     0            
    174800   0.031414288    0.031414288    0            
    174900   0.031414286    0.031414286    0            
    175000   0.031414284    0.031414284    0            
    175100   0.031414282    0.031414282    0            
    175200   0.031414279    0.031414279    0            
    175300   0.031414277    0.031414277    0            
    175400   0.031414275    0.031414275    0            
    175500   0.031414273    0.031414273    0            
    175600   0.031414271    0.031414271    0            
    175700   0.031414269    0.031414269    0            
    175800   0.031414266    0.031414266    0            
    175900   0.031414264    0.031414264    0            
    176000   0.031414262    0.031414262    0            
    176100   0.03141426     0.03141426     0            
    176200   0.031414258    0.031414258    0            
    176300   0.031414256    0.031414256    0            
    176400   0.031414254    0.031414254    0            
    176500   0.031414251    0.031414251    0            
    176600   0.031414249    0.031414249    0            
    176700   0.031414247    0.031414247    0            
    176800   0.031414245    0.031414245    0            
    176900   0.031414243    0.031414243    0            
    177000   0.03141424     0.03141424     0            
    177100   0.031414238    0.031414238    0            
    177200   0.031414236    0.031414236    0            
    177300   0.031414234    0.031414234    0            
    177400   0.031414232    0.031414232    0            
    177500   0.03141423     0.03141423     0            
    177600   0.031414227    0.031414227    0            
    177700   0.031414225    0.031414225    0            
    177800   0.031414223    0.031414223    0            
    177900   0.031414221    0.031414221    0            
    178000   0.031414219    0.031414219    0            
    178100   0.031414216    0.031414216    0            
    178200   0.031414214    0.031414214    0            
    178300   0.031414212    0.031414212    0            
    178400   0.03141421     0.03141421     0            
    178500   0.031414208    0.031414208    0            
    178600   0.031414205    0.031414205    0            
    178700   0.031414203    0.031414203    0            
    178800   0.031414201    0.031414201    0            
    178900   0.031414199    0.031414199    0            
    179000   0.031414197    0.031414197    0            
    179100   0.031414194    0.031414194    0            
    179200   0.031414192    0.031414192    0            
    179300   0.03141419     0.03141419     0            
    179400   0.031414188    0.031414188    0            
    179500   0.031414186    0.031414186    0            
    179600   0.031414183    0.031414183    0            
    179700   0.031414181    0.031414181    0            
    179800   0.031414179    0.031414179    0            
    179900   0.031414177    0.031414177    0            
    180000   0.031414174    0.031414174    0            
    180100   0.031414172    0.031414172    0            
    180200   0.03141417     0.03141417     0            
    180300   0.031414168    0.031414168    0            
    180400   0.031414166    0.031414166    0            
    180500   0.031414163    0.031414163    0            
    180600   0.031414161    0.031414161    0            
    180700   0.031414159    0.031414159    0            
    180800   0.031414157    0.031414157    0            
    180900   0.031414154    0.031414154    0            
    181000   0.031414152    0.031414152    0            
    181100   0.03141415     0.03141415     0            
    181200   0.031414148    0.031414148    0            
    181300   0.031414145    0.031414145    0            
    181400   0.031414143    0.031414143    0            
    181500   0.031414141    0.031414141    0            
    181600   0.031414139    0.031414139    0            
    181700   0.031414136    0.031414136    0            
    181800   0.031414134    0.031414134    0            
    181900   0.031414132    0.031414132    0            
    182000   0.03141413     0.03141413     0            
    182100   0.031414127    0.031414127    0            
    182200   0.031414125    0.031414125    0            
    182300   0.031414123    0.031414123    0            
    182400   0.031414121    0.031414121    0            
    182500   0.031414118    0.031414118    0            
    182600   0.031414116    0.031414116    0            
    182700   0.031414114    0.031414114    0            
    182800   0.031414112    0.031414112    0            
    182900   0.031414109    0.031414109    0            
    183000   0.031414107    0.031414107    0            
    183100   0.031414105    0.031414105    0            
    183200   0.031414102    0.031414102    0            
    183300   0.0314141      0.0314141      0            
    183400   0.031414098    0.031414098    0            
    183500   0.031414096    0.031414096    0            
    183600   0.031414093    0.031414093    0            
    183700   0.031414091    0.031414091    0            
    183800   0.031414089    0.031414089    0            
    183900   0.031414086    0.031414086    0            
    184000   0.031414084    0.031414084    0            
    184100   0.031414082    0.031414082    0            
    184200   0.03141408     0.03141408     0            
    184300   0.031414077    0.031414077    0            
    184400   0.031414075    0.031414075    0            
    184500   0.031414073    0.031414073    0            
    184600   0.03141407     0.03141407     0            
    184700   0.031414068    0.031414068    0            
    184800   0.031414066    0.031414066    0            
    184900   0.031414063    0.031414063    0            
    185000   0.031414061    0.031414061    0            
    185100   0.031414059    0.031414059    0            
    185200   0.031414056    0.031414056    0            
    185300   0.031414054    0.031414054    0            
    185400   0.031414052    0.031414052    0            
    185500   0.03141405     0.03141405     0            
    185600   0.031414047    0.031414047    0            
    185700   0.031414045    0.031414045    0            
    185800   0.031414043    0.031414043    0            
    185900   0.03141404     0.03141404     0            
    186000   0.031414038    0.031414038    0            
    186100   0.031414036    0.031414036    0            
    186200   0.031414033    0.031414033    0            
    186300   0.031414031    0.031414031    0            
    186400   0.031414029    0.031414029    0            
    186500   0.031414026    0.031414026    0            
    186600   0.031414024    0.031414024    0            
    186700   0.031414022    0.031414022    0            
    186800   0.031414019    0.031414019    0            
    186900   0.031414017    0.031414017    0            
    187000   0.031414015    0.031414015    0            
    187100   0.031414012    0.031414012    0            
    187200   0.03141401     0.03141401     0            
    187300   0.031414008    0.031414008    0            
    187400   0.031414005    0.031414005    0            
    187500   0.031414003    0.031414003    0            
    187600   0.031414       0.031414       0            
    187700   0.031413998    0.031413998    0            
    187800   0.031413996    0.031413996    0            
    187900   0.031413993    0.031413993    0            
    188000   0.031413991    0.031413991    0            
    188100   0.031413989    0.031413989    0            
    188200   0.031413986    0.031413986    0            
    188300   0.031413984    0.031413984    0            
    188400   0.031413982    0.031413982    0            
    188500   0.031413979    0.031413979    0            
    188600   0.031413977    0.031413977    0            
    188700   0.031413974    0.031413974    0            
    188800   0.031413972    0.031413972    0            
    188900   0.03141397     0.03141397     0            
    189000   0.031413967    0.031413967    0            
    189100   0.031413965    0.031413965    0            
    189200   0.031413963    0.031413963    0            
    189300   0.03141396     0.03141396     0            
    189400   0.031413958    0.031413958    0            
    189500   0.031413955    0.031413955    0            
    189600   0.031413953    0.031413953    0            
    189700   0.031413951    0.031413951    0            
    189800   0.031413948    0.031413948    0            
    189900   0.031413946    0.031413946    0            
    190000   0.031413943    0.031413943    0            
    190100   0.031413941    0.031413941    0            
    190200   0.031413939    0.031413939    0            
    190300   0.031413936    0.031413936    0            
    190400   0.031413934    0.031413934    0            
    190500   0.031413931    0.031413931    0            
    190600   0.031413929    0.031413929    0            
    190700   0.031413927    0.031413927    0            
    190800   0.031413924    0.031413924    0            
    190900   0.031413922    0.031413922    0            
    191000   0.031413919    0.031413919    0            
    191100   0.031413917    0.031413917    0            
    191200   0.031413915    0.031413915    0            
    191300   0.031413912    0.031413912    0            
    191400   0.03141391     0.03141391     0            
    191500   0.031413907    0.031413907    0            
    191600   0.031413905    0.031413905    0            
    191700   0.031413903    0.031413903    0            
    191800   0.0314139      0.0314139      0            
    191900   0.031413898    0.031413898    0            
    192000   0.031413895    0.031413895    0            
    192100   0.031413893    0.031413893    0            
    192200   0.03141389     0.03141389     0            
    192300   0.031413888    0.031413888    0            
    192400   0.031413885    0.031413885    0            
    192500   0.031413883    0.031413883    0            
    192600   0.031413881    0.031413881    0            
    192700   0.031413878    0.031413878    0            
    192800   0.031413876    0.031413876    0            
    192900   0.031413873    0.031413873    0            
    193000   0.031413871    0.031413871    0            
    193100   0.031413868    0.031413868    0            
    193200   0.031413866    0.031413866    0            
    193300   0.031413863    0.031413863    0            
    193400   0.031413861    0.031413861    0            
    193500   0.031413859    0.031413859    0            
    193600   0.031413856    0.031413856    0            
    193700   0.031413854    0.031413854    0            
    193800   0.031413851    0.031413851    0            
    193900   0.031413849    0.031413849    0            
    194000   0.031413846    0.031413846    0            
    194100   0.031413844    0.031413844    0            
    194200   0.031413841    0.031413841    0            
    194300   0.031413839    0.031413839    0            
    194400   0.031413836    0.031413836    0            
    194500   0.031413834    0.031413834    0            
    194600   0.031413831    0.031413831    0            
    194700   0.031413829    0.031413829    0            
    194800   0.031413827    0.031413827    0            
    194900   0.031413824    0.031413824    0            
    195000   0.031413822    0.031413822    0            
    195100   0.031413819    0.031413819    0            
    195200   0.031413817    0.031413817    0            
    195300   0.031413814    0.031413814    0            
    195400   0.031413812    0.031413812    0            
    195500   0.031413809    0.031413809    0            
    195600   0.031413807    0.031413807    0            
    195700   0.031413804    0.031413804    0            
    195800   0.031413802    0.031413802    0            
    195900   0.031413799    0.031413799    0            
    196000   0.031413797    0.031413797    0            
    196100   0.031413794    0.031413794    0            
    196200   0.031413792    0.031413792    0            
    196300   0.031413789    0.031413789    0            
    196400   0.031413787    0.031413787    0            
    196500   0.031413784    0.031413784    0            
    196600   0.031413782    0.031413782    0            
    196700   0.031413779    0.031413779    0            
    196800   0.031413777    0.031413777    0            
    196900   0.031413774    0.031413774    0            
    197000   0.031413772    0.031413772    0            
    197100   0.031413769    0.031413769    0            
    197200   0.031413767    0.031413767    0            
    197300   0.031413764    0.031413764    0            
    197400   0.031413761    0.031413761    0            
    197500   0.031413759    0.031413759    0            
    197600   0.031413756    0.031413756    0            
    197700   0.031413754    0.031413754    0            
    197800   0.031413751    0.031413751    0            
    197900   0.031413749    0.031413749    0            
    198000   0.031413746    0.031413746    0            
    198100   0.031413744    0.031413744    0            
    198200   0.031413741    0.031413741    0            
    198300   0.031413739    0.031413739    0            
    198400   0.031413736    0.031413736    0            
    198500   0.031413734    0.031413734    0            
    198600   0.031413731    0.031413731    0            
    198700   0.031413729    0.031413729    0            
    198800   0.031413726    0.031413726    0            
    198900   0.031413723    0.031413723    0            
    199000   0.031413721    0.031413721    0            
    199100   0.031413718    0.031413718    0            
    199200   0.031413716    0.031413716    0            
    199300   0.031413713    0.031413713    0            
    199400   0.031413711    0.031413711    0            
    199500   0.031413708    0.031413708    0            
    199600   0.031413706    0.031413706    0            
    199700   0.031413703    0.031413703    0            
    199800   0.0314137      0.0314137      0            
    199900   0.031413698    0.031413698    0            
    200000   0.031413695    0.031413695    0            
    200100   0.031413693    0.031413693    0            
    200200   0.03141369     0.03141369     0            
    200300   0.031413688    0.031413688    0            
    200400   0.031413685    0.031413685    0            
    200500   0.031413682    0.031413682    0            
    200600   0.03141368     0.03141368     0            
    200700   0.031413677    0.031413677    0            
    200800   0.031413675    0.031413675    0            
    200900   0.031413672    0.031413672    0            
    201000   0.031413669    0.031413669    0            
Loop time of 3.06664 on 1 procs for 200000 steps with 404 atoms

101.8% CPU use with 1 MPI tasks x 1 OpenMP threads

MPI task timing breakdown:
Section |  min time  |  avg time  |  max time  |%varavg| %total
---------------------------------------------------------------
Pair    | 0.94184    | 0.94184    | 0.94184    |   0.0 | 30.71
Neigh   | 0          | 0          | 0          |   0.0 |  0.00
Comm    | 0.0086543  | 0.0086543  | 0.0086543  |   0.0 |  0.28
Output  | 0.20296    | 0.20296    | 0.20296    |   0.0 |  6.62
Modify  | 1.7379     | 1.7379     | 1.7379     |   0.0 | 56.67
Other   |            | 0.1753     |            |       |  5.72

Nlocal:            404 ave         404 max         404 min
Histogram: 1 0 0 0 0 0 0 0 0 0
Nghost:              0 ave           0 max           0 min
Histogram: 1 0 0 0 0 0 0 0 0 0
Neighs:            804 ave         804 max         804 min
Histogram: 1 0 0 0 0 0 0 0 0 0

Total # of neighbors = 804
Ave neighs/atom = 1.990099
Neighbor list builds = 0
Dangerous builds = 0
Total wall time: 0:00:03
